/*--------------------------------*- C++ -*----------------------------------*\
| =========                 |                                                 |
| \\      /  F ield         | OpenFOAM: The Open Source CFD Toolbox           |
|  \\    /   O peration     | Version:  5.x                                   |
|   \\  /    A nd           | Web:      www.OpenFOAM.org                      |
|    \\/     M anipulation  |                                                 |
\*---------------------------------------------------------------------------*/
FoamFile
{
    version     2.0;
    format      ascii;
    class       volScalarField;
    location    "3.3";
    object      gradTx;
}
// * * * * * * * * * * * * * * * * * * * * * * * * * * * * * * * * * * * * * //

dimensions      [0 -1 0 1 0 0 0];

internalField   nonuniform List<scalar> 
6300
(
-48.1194
-48.0968
-48.0516
-47.9836
-47.8927
-47.7786
-47.6413
-47.4809
-47.2978
-47.0927
-46.8666
-46.6208
-46.3572
-46.0775
-45.7833
-48.142
-48.1195
-48.0745
-48.0067
-47.9159
-47.8019
-47.6645
-47.5038
-47.32
-47.1138
-46.8862
-46.6388
-46.3734
-46.092
-45.7967
-48.1872
-48.1649
-48.1202
-48.0528
-47.9624
-47.8486
-47.7111
-47.5497
-47.3646
-47.1563
-46.9259
-46.675
-46.4057
-46.1207
-45.8227
-48.2547
-48.2327
-48.1886
-48.122
-48.0323
-47.919
-47.7816
-47.6195
-47.4325
-47.2211
-46.9862
-46.7295
-46.4538
-46.1627
-45.8597
-48.3442
-48.3228
-48.2796
-48.2142
-48.1259
-48.0138
-47.8768
-47.7141
-47.5251
-47.3095
-47.0682
-46.8032
-46.5176
-46.2164
-45.9052
-48.4553
-48.4346
-48.3929
-48.3295
-48.2434
-48.1334
-47.9978
-47.8352
-47.6442
-47.4238
-47.1742
-46.8974
-46.5972
-46.2803
-45.9553
-48.587
-48.5675
-48.5279
-48.4676
-48.385
-48.2785
-48.146
-47.9849
-47.7926
-47.5672
-47.3076
-47.0149
-46.6936
-46.3525
-46.0045
-48.7384
-48.7204
-48.6839
-48.6278
-48.5506
-48.4499
-48.3228
-48.1656
-47.9744
-47.745
-47.4742
-47.1612
-46.81
-46.4317
-46.0455
-48.9078
-48.8919
-48.8595
-48.8093
-48.7397
-48.6477
-48.5296
-48.3806
-48.1945
-47.9643
-47.683
-47.3458
-46.9536
-46.5187
-46.069
-49.0932
-49.0799
-49.0527
-49.0105
-48.9511
-48.8716
-48.7674
-48.6326
-48.4587
-48.2347
-47.9479
-47.5854
-47.1401
-46.6207
-46.0651
-49.2919
-49.2818
-49.2612
-49.2288
-49.1828
-49.1201
-49.0361
-48.9238
-48.7729
-48.5681
-48.2885
-47.9079
-47.4006
-46.759
-46.0261
-49.5007
-49.4944
-49.4814
-49.4608
-49.4311
-49.3899
-49.3331
-49.2538
-49.141
-48.9764
-48.7303
-48.3572
-47.7957
-46.9885
-45.9549
-49.7159
-49.7137
-49.7091
-49.7019
-49.6911
-49.6755
-49.6525
-49.6173
-49.561
-49.4661
-49.299
-48.9949
-48.4364
-47.4448
-45.8871
-49.9333
-49.9354
-49.9397
-49.9464
-49.9559
-49.9684
-49.984
-50.002
-50.0195
-50.0282
-50.0048
-49.8871
-49.5102
-48.4671
-45.9841
-50.1486
-50.1549
-50.1678
-50.1883
-50.2178
-50.2584
-50.3133
-50.3872
-50.487
-50.6223
-50.8051
-51.0385
-51.2504
-50.9295
-47.1597
-45.5025
-45.2375
-44.9634
-44.6796
-44.3851
-44.0782
-43.7576
-43.4217
-43.0693
-42.6997
-42.3129
-41.9096
-41.4909
-41.0588
-40.6154
-40.1633
-39.7052
-39.244
-38.7825
-38.3237
-37.8705
-37.4257
-36.992
-36.572
-36.1678
-35.7813
-35.414
-35.067
-34.7409
-34.4361
-34.1525
-33.8898
-33.6471
-33.4237
-33.2182
-33.0297
-32.8568
-32.6982
-32.5529
-32.4195
-32.297
-32.1843
-32.0806
-31.9852
-31.8976
-31.8178
-31.7459
-31.6826
-31.6288
-31.5854
-31.5537
-31.5346
-31.5292
-31.5383
-31.5624
-31.6017
-31.6565
-31.7263
-31.8108
-31.9093
-32.021
-32.1451
-32.2806
-32.4268
-32.5828
-32.7481
-32.9221
-33.104
-33.2936
-33.4902
-33.6935
-33.9032
-34.1189
-34.3406
-34.5681
-34.8014
-35.0405
-35.2851
-35.5353
-35.7908
-36.0516
-36.3173
-36.5877
-36.8626
-37.1413
-37.4231
-37.7071
-37.9919
-38.2758
-38.557
-45.5154
-45.2506
-44.9775
-44.6954
-44.4029
-44.0983
-43.7798
-43.4456
-43.0942
-42.7247
-42.337
-41.9319
-41.5106
-41.0752
-40.6282
-40.1722
-39.7101
-39.2446
-38.779
-38.316
-37.8586
-37.41
-36.9727
-36.5495
-36.1426
-35.754
-35.3851
-35.0371
-34.7106
-34.4059
-34.1229
-33.8612
-33.6198
-33.398
-33.1943
-33.0075
-32.8364
-32.6796
-32.5359
-32.4041
-32.2831
-32.1717
-32.069
-31.9742
-31.8867
-31.8065
-31.7338
-31.6693
-31.6139
-31.5689
-31.5356
-31.5151
-31.5086
-31.5168
-31.5405
-31.5798
-31.6348
-31.7053
-31.7907
-31.8904
-32.0033
-32.1286
-32.2653
-32.4125
-32.5695
-32.7356
-32.9103
-33.093
-33.2832
-33.4805
-33.6842
-33.8942
-34.1102
-34.332
-34.5596
-34.7929
-35.0321
-35.2769
-35.5273
-35.783
-36.044
-36.3101
-36.581
-36.8566
-37.1363
-37.4197
-37.7055
-37.9927
-38.2793
-38.5634
-45.5402
-45.2759
-45.0049
-44.7262
-44.4382
-44.1387
-43.825
-43.4945
-43.1453
-42.7761
-42.3866
-41.9776
-41.5508
-41.1088
-40.6542
-40.1902
-39.7198
-39.246
-38.7718
-38.3003
-37.8347
-37.3781
-36.9335
-36.5039
-36.0916
-35.6986
-35.3266
-34.9766
-34.6492
-34.3448
-34.0631
-33.8034
-33.565
-33.3464
-33.1463
-32.9632
-32.7957
-32.6424
-32.5021
-32.3736
-32.2556
-32.147
-32.0464
-31.9529
-31.8658
-31.7848
-31.7102
-31.643
-31.5844
-31.5359
-31.4992
-31.4757
-31.4668
-31.4734
-31.4961
-31.5353
-31.591
-31.6629
-31.7503
-31.8523
-31.9678
-32.0956
-32.2347
-32.3841
-32.543
-32.7108
-32.887
-33.0711
-33.2627
-33.4611
-33.6658
-33.8765
-34.0928
-34.3147
-34.5424
-34.7759
-35.0152
-35.2603
-35.5111
-35.7674
-36.0289
-36.2955
-36.5672
-36.8441
-37.1258
-37.412
-37.7017
-37.9936
-38.2858
-38.576
-45.5749
-45.3112
-45.0434
-44.7706
-44.4904
-44.1996
-43.8943
-43.5707
-43.2256
-42.8569
-42.4644
-42.0491
-41.6134
-41.1605
-40.6942
-40.2178
-39.7348
-39.2482
-38.7611
-38.2766
-37.7981
-37.3291
-36.8732
-36.4335
-36.0129
-35.6134
-35.2367
-34.8838
-34.5553
-34.2513
-33.9717
-33.7156
-33.4818
-33.2686
-33.0742
-32.8969
-32.7349
-32.5869
-32.4518
-32.3283
-32.2151
-32.1109
-32.0139
-31.9227
-31.8362
-31.754
-31.6764
-31.6046
-31.5405
-31.4862
-31.4439
-31.4156
-31.4029
-31.4069
-31.4282
-31.4672
-31.524
-31.5982
-31.6888
-31.7948
-31.9145
-32.0466
-32.1894
-32.342
-32.5035
-32.6737
-32.8521
-33.0384
-33.2321
-33.4324
-33.6387
-33.8503
-34.0671
-34.2891
-34.5166
-34.75
-34.9896
-35.2353
-35.4868
-35.7438
-36.0059
-36.2731
-36.5457
-36.8241
-37.1084
-37.3988
-37.6943
-37.9936
-38.2946
-38.5945
-45.616
-45.3526
-45.0895
-44.8257
-44.558
-44.2816
-43.9903
-43.6781
-43.3398
-42.9724
-42.5752
-42.1501
-41.7008
-41.232
-40.7487
-40.2553
-39.7552
-39.2514
-38.7469
-38.2445
-37.7481
-37.2617
-36.7898
-36.3362
-35.9041
-35.4958
-35.1129
-34.7562
-34.4263
-34.1232
-33.8468
-33.596
-33.3692
-33.1641
-32.978
-32.8087
-32.6543
-32.5133
-32.385
-32.2683
-32.1622
-32.0646
-31.9734
-31.8861
-31.8009
-31.7168
-31.6344
-31.5554
-31.4827
-31.4193
-31.3687
-31.3333
-31.3152
-31.3155
-31.3349
-31.3738
-31.4322
-31.5098
-31.6054
-31.7174
-31.8437
-31.9819
-32.13
-32.2868
-32.4517
-32.6246
-32.8058
-32.995
-33.1918
-33.395
-33.6036
-33.8166
-34.0336
-34.2552
-34.482
-34.7151
-34.955
-35.2016
-35.4544
-35.7124
-35.9752
-36.2426
-36.5155
-36.7949
-37.082
-37.3775
-37.681
-37.9908
-38.3044
-38.6184
-45.6579
-45.3935
-45.1366
-44.8865
-44.6385
-44.3852
-44.1167
-43.8232
-43.4962
-43.131
-42.7266
-42.2864
-41.8165
-41.3248
-40.8182
-40.3025
-39.7811
-39.2563
-38.7297
-38.2042
-37.6839
-37.174
-36.6803
-36.2081
-35.7613
-35.3421
-34.9517
-34.5905
-34.2588
-33.9571
-33.6853
-33.4424
-33.2259
-33.0324
-32.8581
-32.6996
-32.5545
-32.4219
-32.3016
-32.1937
-32.0972
-32.0096
-31.9276
-31.8469
-31.7641
-31.6776
-31.5879
-31.4976
-31.4115
-31.3346
-31.2717
-31.2265
-31.2012
-31.1967
-31.2137
-31.2523
-31.313
-31.3954
-31.4984
-31.6197
-31.7557
-31.9029
-32.0582
-32.2201
-32.3882
-32.5637
-32.7476
-32.9406
-33.142
-33.3498
-33.562
-33.7767
-33.9935
-34.2133
-34.4381
-34.67
-34.9103
-35.1587
-35.4139
-35.6739
-35.9373
-36.204
-36.4754
-36.7542
-37.0432
-37.3443
-37.6579
-37.982
-38.3132
-38.6469
-45.692
-45.4236
-45.1744
-44.9443
-44.727
-44.5107
-44.2794
-44.0165
-43.7081
-43.3461
-42.9298
-42.4654
-41.9642
-41.439
-40.9012
-40.3581
-39.8124
-39.2638
-38.7114
-38.1569
-37.6049
-37.0632
-36.5403
-36.0439
-35.579
-35.1474
-34.7488
-34.3825
-34.0486
-33.7484
-33.4827
-33.251
-33.0498
-32.8736
-32.7159
-32.5714
-32.4371
-32.313
-32.201
-32.1031
-32.0195
-31.9472
-31.88
-31.8108
-31.7332
-31.6434
-31.5422
-31.4343
-31.3273
-31.2298
-31.1495
-31.0913
-31.0572
-31.0474
-31.0614
-31.0994
-31.1625
-31.2515
-31.3654
-31.5007
-31.6517
-31.8122
-31.9771
-32.1441
-32.3142
-32.4904
-32.6764
-32.8742
-33.0826
-33.2983
-33.5165
-33.7337
-33.9488
-34.1641
-34.3838
-34.6127
-34.8535
-35.1057
-35.3661
-35.6302
-35.8944
-36.1581
-36.4242
-36.6982
-36.9863
-37.2929
-37.6191
-37.9624
-38.3179
-38.6789
-45.7052
-45.4262
-45.1849
-44.9837
-44.8143
-44.6579
-44.4878
-44.2755
-43.9974
-43.6398
-43.2025
-42.6978
-42.1465
-41.5717
-40.9921
-40.4178
-39.8483
-39.2768
-38.6966
-38.1061
-37.5117
-36.9255
-36.3623
-35.8346
-35.349
-34.9055
-34.4998
-34.1282
-33.7905
-33.4902
-33.2316
-33.0159
-32.838
-32.6883
-32.5551
-32.429
-32.3056
-32.1871
-32.0802
-31.9922
-31.9261
-31.8775
-31.8359
-31.7874
-31.7198
-31.626
-31.5066
-31.3699
-31.2295
-31.1006
-30.9956
-30.9215
-30.8787
-30.8641
-30.8746
-30.9104
-30.9749
-31.0718
-31.2016
-31.359
-31.5341
-31.7151
-31.8929
-32.0639
-32.2312
-32.403
-32.5882
-32.7921
-33.0128
-33.2428
-33.4723
-33.6934
-33.9038
-34.1081
-34.316
-34.5379
-34.7799
-35.0407
-35.3128
-35.5858
-35.8517
-36.1084
-36.3612
-36.6216
-36.9023
-37.2127
-37.555
-37.9249
-38.3143
-38.7133
-45.6781
-45.3744
-45.138
-44.9773
-44.8832
-44.8251
-44.7571
-44.6296
-44.4012
-44.0485
-43.5725
-42.9976
-42.363
-41.7113
-41.0759
-40.4709
-39.8873
-39.3028
-38.6967
-38.0615
-37.4068
-36.7551
-36.1337
-35.565
-35.0589
-34.6093
-34.202
-33.8253
-33.4787
-33.1722
-32.9194
-32.7265
-32.5861
-32.4796
-32.3845
-32.2829
-32.1673
-32.0447
-31.9326
-31.8503
-31.8077
-31.7983
-31.8018
-31.7918
-31.7445
-31.6458
-31.4962
-31.3111
-31.1156
-30.9371
-30.7975
-30.7067
-30.6598
-30.6446
-30.6515
-30.6803
-30.7406
-30.8449
-30.9982
-31.1922
-31.4078
-31.6226
-31.8185
-31.9889
-32.1417
-32.296
-32.4732
-32.6856
-32.9294
-33.188
-33.44
-33.6684
-33.8674
-34.0467
-34.2277
-34.4338
-34.6789
-34.9593
-35.2577
-35.5513
-35.8221
-36.0639
-36.287
-36.5151
-36.7753
-37.0862
-37.4505
-37.8588
-38.2964
-38.7487
-45.5821
-45.2256
-44.9823
-44.8751
-44.9004
-45.0066
-45.1122
-45.1293
-44.9843
-44.6348
-44.085
-43.3835
-42.6044
-41.8275
-41.1161
-40.4934
-39.9277
-39.3602
-38.7389
-38.0451
-37.2979
-36.5414
-35.8292
-35.2056
-34.6877
-34.2527
-33.8602
-33.4796
-33.1094
-32.7774
-32.5209
-32.3618
-32.2858
-32.2548
-32.2238
-32.157
-32.0396
-31.8874
-31.7423
-31.6514
-31.6418
-31.7006
-31.7873
-31.8504
-31.8437
-31.7389
-31.537
-31.2675
-30.9773
-30.7176
-30.5296
-30.4288
-30.3954
-30.3937
-30.397
-30.4048
-30.4434
-30.5474
-30.7361
-30.9942
-31.2829
-31.5572
-31.7808
-31.9395
-32.0499
-32.156
-32.3074
-32.5337
-32.8247
-33.1426
-33.4417
-33.6853
-33.8592
-33.9826
-34.1029
-34.2736
-34.5268
-34.8518
-35.209
-35.5496
-35.8338
-36.0459
-36.2052
-36.362
-36.5748
-36.8823
-37.2825
-37.7502
-38.257
-38.7835
-45.3749
-44.9141
-44.6306
-44.5823
-44.8013
-45.1892
-45.5948
-45.8625
-45.8619
-45.51
-44.8162
-43.8812
-42.8427
-41.8498
-41.0288
-40.4338
-39.971
-39.4953
-38.886
-38.1058
-37.2025
-36.2644
-35.3971
-34.6944
-34.1975
-33.8351
-33.5017
-33.1191
-32.6855
-32.274
-31.9828
-31.8775
-31.9209
-32.03
-32.1151
-32.1043
-31.9622
-31.7202
-31.4742
-31.3358
-31.3774
-31.5633
-31.807
-32.0096
-32.0843
-31.9723
-31.6752
-31.2541
-30.7954
-30.3951
-30.1361
-30.054
-30.0853
-30.1358
-30.1359
-30.0852
-30.0519
-30.128
-30.3741
-30.752
-31.1788
-31.5646
-31.8368
-31.9593
-31.9644
-31.9505
-32.0335
-32.2888
-32.681
-33.124
-33.5232
-33.8023
-33.9237
-33.9229
-33.9053
-33.9943
-34.2709
-34.6978
-35.184
-35.6286
-35.9492
-36.1036
-36.1267
-36.1279
-36.2378
-36.5443
-37.0173
-37.5847
-38.1889
-38.8135
-44.9906
-44.3476
-43.9402
-43.9049
-44.4589
-45.3466
-46.2762
-46.9821
-47.2459
-46.8775
-45.8951
-44.5283
-43.0156
-41.6246
-40.6165
-40.1841
-40.0332
-39.823
-39.2793
-38.3442
-37.1575
-35.8857
-34.7284
-33.8872
-33.5136
-33.3763
-33.2141
-32.8326
-32.2301
-31.5976
-31.1773
-31.1793
-31.4619
-31.8403
-32.1446
-32.2412
-32.029
-31.5592
-31.0513
-30.7614
-30.9056
-31.3431
-31.886
-32.3535
-32.5939
-32.4725
-31.9925
-31.2949
-30.5298
-29.8692
-29.488
-29.5161
-29.7477
-29.9507
-29.9484
-29.7405
-29.5029
-29.4641
-29.8225
-30.4394
-31.134
-31.7355
-32.1085
-32.1482
-31.906
-31.6057
-31.5113
-31.8467
-32.464
-33.1684
-33.7773
-34.146
-34.1641
-33.8871
-33.5537
-33.4448
-33.7981
-34.4581
-35.2186
-35.8857
-36.3036
-36.3502
-36.0791
-35.737
-35.617
-35.9665
-36.6156
-37.3659
-38.0914
-38.8177
-44.288
-43.4419
-42.7141
-42.3789
-43.6363
-45.444
-47.2797
-48.7386
-49.5405
-49.1295
-47.5278
-45.3859
-43.0135
-40.8483
-39.3755
-39.5295
-40.1812
-40.6314
-40.2364
-38.9453
-37.2356
-35.3424
-33.6049
-32.4069
-32.4901
-32.9536
-33.2427
-32.8646
-31.8182
-30.6164
-29.7642
-30.0774
-30.8655
-31.7577
-32.4739
-32.8231
-32.4673
-31.4535
-30.3152
-29.5625
-30.0117
-30.9719
-32.0737
-33.0252
-33.6248
-33.4896
-32.6238
-31.4332
-30.1142
-28.9416
-28.2509
-28.6855
-29.4515
-30.0616
-30.0571
-29.4388
-28.6681
-28.2282
-28.8991
-30.0149
-31.2231
-32.2358
-32.8601
-32.7428
-31.9315
-30.9642
-30.3702
-30.9985
-32.1214
-33.3503
-34.3771
-34.9943
-34.8291
-33.9322
-32.8786
-32.2292
-32.8835
-34.0731
-35.3875
-36.5013
-37.1921
-37.0539
-36.1329
-35.0258
-34.3197
-34.9564
-36.0676
-37.1822
-37.9923
-38.6885
-42.7369
-42.366
-40.9226
-38.5598
-42.0212
-45.5011
-48.8263
-51.4412
-53.582
-53.0962
-49.9386
-46.5755
-42.7133
-39.0753
-35.792
-38.1585
-40.6196
-42.657
-42.4844
-40.1493
-37.5782
-34.5754
-31.7047
-29.082
-30.9191
-32.7825
-34.2326
-33.8593
-31.6303
-29.132
-26.6732
-28.2919
-30.1196
-31.9286
-33.3323
-34.4203
-33.8536
-31.5273
-29.0243
-26.6328
-28.3824
-30.3971
-32.4783
-34.2038
-35.7143
-35.5588
-33.7232
-31.7564
-29.4881
-27.3201
-25.3937
-27.3779
-29.3799
-31.0576
-31.0496
-29.3569
-27.3569
-25.3927
-27.3349
-29.4577
-31.5937
-33.2951
-34.6798
-34.3369
-32.1815
-29.7848
-27.4691
-29.4379
-31.6258
-33.8232
-35.5663
-36.9692
-36.5476
-34.2027
-31.6211
-29.1363
-31.1977
-33.508
-35.8449
-37.7255
-39.2738
-38.8844
-36.4547
-33.7367
-31.0886
-33.2628
-35.5143
-37.4366
-38.0567
-37.8783
-37.4462
-42.8344
-40.4552
-26.3541
-40.3797
-45.7813
-51.3958
-54.8268
-61.4061
-60.9107
-52.6456
-48.4839
-42.0908
-36.7917
-24.0732
-36.6516
-41.6683
-47.8656
-47.8469
-41.6934
-38.5431
-33.6183
-29.4476
-19.3356
-29.3105
-33.2069
-37.8484
-37.5267
-31.8307
-27.5912
-17.711
-26.2058
-29.4009
-32.6838
-34.646
-38.4005
-37.7743
-31.8562
-27.5731
-17.7404
-26.3719
-29.7268
-33.3958
-35.6924
-40.2033
-40.0481
-35.0118
-32.5142
-28.7178
-25.3511
-16.9054
-26.0448
-29.7758
-34.4812
-34.4686
-29.7175
-25.9944
-16.9321
-25.5111
-28.8813
-32.5902
-34.8107
-38.9874
-38.5408
-32.7788
-28.489
-18.3983
-27.5616
-31.1166
-34.9502
-37.245
-41.5712
-41.0353
-34.8136
-30.2238
-19.4965
-29.1531
-32.904
-36.9592
-39.4276
-44.1455
-43.6524
-37.1911
-32.3464
-20.9127
-31.4575
-35.4346
-39.5657
-39.2696
-33.4988
-38.8603
-39.1818
-39.4893
-39.7798
-40.0504
-40.2989
-40.5237
-40.7237
-40.8985
-41.0477
-41.1715
-41.2701
-41.3437
-41.3926
-41.417
-38.8702
-39.1951
-39.506
-39.7992
-40.072
-40.3221
-40.5479
-40.7485
-40.9235
-41.0726
-41.1962
-41.2945
-41.3679
-41.4165
-41.4408
-38.8897
-39.2221
-39.5396
-39.8385
-40.1158
-40.369
-40.5968
-40.7984
-40.9737
-41.1227
-41.2457
-41.3434
-41.4162
-41.4644
-41.4885
-38.9193
-39.2633
-39.5914
-39.8991
-40.1829
-40.4408
-40.6714
-40.8743
-41.0497
-41.198
-41.3201
-41.4167
-41.4885
-41.536
-41.5596
-38.9592
-39.3201
-39.663
-39.9828
-40.2756
-40.5393
-40.7731
-40.9771
-41.1521
-41.2992
-41.4195
-41.5143
-41.5845
-41.6308
-41.6539
-39.0101
-39.3943
-39.7574
-40.0929
-40.3968
-40.6672
-40.9041
-41.1084
-41.2819
-41.4265
-41.544
-41.636
-41.7038
-41.7485
-41.7706
-39.0731
-39.489
-39.8787
-40.2342
-40.551
-40.8281
-41.0669
-41.27
-41.4401
-41.5804
-41.6934
-41.7813
-41.8457
-41.8881
-41.909
-39.1503
-39.6094
-40.0339
-40.4136
-40.7443
-41.0269
-41.2651
-41.4638
-41.6276
-41.761
-41.8673
-41.9494
-42.0093
-42.0485
-42.0679
-39.2456
-39.7639
-40.2336
-40.6415
-40.9852
-41.2695
-41.5023
-41.6918
-41.8451
-41.9679
-42.0649
-42.1391
-42.1931
-42.2282
-42.2455
-39.3655
-39.9666
-40.4946
-40.9333
-41.2854
-41.5635
-41.7826
-41.9555
-42.0923
-42.2003
-42.2845
-42.3486
-42.395
-42.4252
-42.44
-39.5199
-40.242
-40.8446
-41.3111
-41.6592
-41.9165
-42.1088
-42.255
-42.3679
-42.4557
-42.5237
-42.5753
-42.6126
-42.6368
-42.6488
-39.7223
-40.6363
-41.33
-41.8065
-42.123
-42.3345
-42.4812
-42.5877
-42.6681
-42.7303
-42.7787
-42.8157
-42.8426
-42.8602
-42.869
-39.9912
-41.2499
-42.0319
-42.4605
-42.6899
-42.8168
-42.8937
-42.9463
-42.9862
-43.0183
-43.0445
-43.0654
-43.0813
-43.0919
-43.0973
-40.4044
-42.3396
-43.0883
-43.3139
-43.3577
-43.3482
-43.3303
-43.3175
-43.3118
-43.3116
-43.3149
-43.3197
-43.3245
-43.3283
-43.3303
-41.6418
-44.6141
-44.6671
-44.3492
-44.0771
-43.8872
-43.7618
-43.6816
-43.6315
-43.601
-43.5833
-43.5734
-43.5682
-43.5658
-43.5648
-50.3402
-50.3499
-50.37
-50.4018
-50.4476
-50.511
-50.5977
-50.7166
-50.8828
-51.1234
-51.4923
-52.1136
-53.3339
-56.3482
-66.1484
-50.5077
-50.5201
-50.5457
-50.5862
-50.6443
-50.7245
-50.8338
-50.9832
-51.1911
-51.49
-51.9418
-52.6751
-53.9821
-56.5619
-61.9901
-50.6665
-50.6811
-50.7111
-50.7583
-50.8256
-50.9179
-51.0421
-51.2092
-51.4362
-51.7504
-52.1957
-52.8383
-53.7465
-54.7975
-54.5433
-50.8153
-50.8314
-50.8645
-50.9163
-50.9897
-51.089
-51.2206
-51.3935
-51.6207
-51.9198
-52.3127
-52.8169
-53.4117
-53.9396
-53.978
-50.9528
-50.9699
-51.0049
-51.0594
-51.1358
-51.2378
-51.3704
-51.5402
-51.7552
-52.024
-52.3523
-52.7326
-53.1234
-53.4216
-53.5054
-51.0784
-51.0959
-51.1318
-51.1871
-51.264
-51.3653
-51.4944
-51.6554
-51.8523
-52.0871
-52.3558
-52.6411
-52.8993
-53.0524
-53.0253
-51.1917
-51.2093
-51.2451
-51.2999
-51.3754
-51.4734
-51.5962
-51.7458
-51.9231
-52.1265
-52.348
-52.5683
-52.7481
-52.8083
-52.5265
-51.2928
-51.3101
-51.345
-51.3984
-51.4711
-51.5644
-51.6794
-51.8168
-51.9759
-52.1532
-52.3408
-52.5236
-52.68
-52.8018
-53.0431
-51.3818
-51.3985
-51.4322
-51.4833
-51.5524
-51.6402
-51.747
-51.8728
-52.0159
-52.1729
-52.337
-52.4973
-52.6361
-52.7121
-52.5168
-51.4592
-51.4752
-51.5073
-51.5557
-51.6208
-51.7028
-51.8016
-51.9166
-52.0463
-52.1876
-52.3359
-52.4857
-52.6357
-52.8109
-53.2041
-51.5255
-51.5406
-51.5709
-51.6164
-51.6773
-51.7536
-51.8448
-51.9503
-52.0686
-52.1973
-52.3335
-52.4742
-52.6176
-52.7582
-52.8162
-51.5812
-51.5954
-51.6238
-51.6665
-51.7232
-51.7939
-51.8782
-51.9751
-52.0836
-52.2019
-52.328
-52.4606
-52.6016
-52.7629
-53.0108
-51.627
-51.6403
-51.6669
-51.7066
-51.7594
-51.8249
-51.9027
-51.992
-52.0918
-52.2009
-52.3177
-52.4413
-52.5714
-52.7072
-52.8367
-51.6635
-51.6759
-51.7007
-51.7376
-51.7866
-51.8473
-51.9191
-52.0015
-52.0936
-52.1944
-52.3027
-52.4174
-52.5372
-52.656
-52.7498
-51.6913
-51.7029
-51.7259
-51.7602
-51.8056
-51.8618
-51.9282
-52.0043
-52.0893
-52.1825
-52.283
-52.39
-52.5036
-52.622
-52.7325
-51.711
-51.7218
-51.7432
-51.775
-51.8172
-51.8692
-51.9306
-52.0009
-52.0795
-52.1655
-52.2585
-52.3581
-52.4666
-52.5935
-52.7928
-51.7232
-51.7332
-51.7531
-51.7827
-51.8217
-51.8699
-51.9268
-51.9918
-52.0643
-52.1437
-52.229
-52.3199
-52.4169
-52.5146
-52.5437
-51.7283
-51.7376
-51.7561
-51.7836
-51.8199
-51.8646
-51.9173
-51.9775
-52.0445
-52.1175
-52.1955
-52.2776
-52.3667
-52.4831
-52.7649
-51.7269
-51.7356
-51.7528
-51.7783
-51.8121
-51.8536
-51.9026
-51.9584
-52.0205
-52.0878
-52.1586
-52.2303
-52.2976
-52.3366
-52.1955
-51.7194
-51.7275
-51.7435
-51.7673
-51.7987
-51.8374
-51.8831
-51.9351
-51.9929
-52.0555
-52.1209
-52.186
-52.248
-52.3149
-52.5169
-51.7062
-51.7137
-51.7286
-51.7509
-51.7802
-51.8164
-51.859
-51.9078
-51.9621
-52.021
-52.0829
-52.144
-52.195
-52.1994
-51.9804
-51.6876
-51.6946
-51.7086
-51.7294
-51.7569
-51.7907
-51.8307
-51.8766
-51.928
-51.9844
-52.0451
-52.1088
-52.1744
-52.2388
-52.2929
-51.664
-51.6706
-51.6837
-51.7032
-51.7289
-51.7607
-51.7983
-51.8416
-51.8904
-51.9448
-52.0049
-52.0722
-52.1546
-52.2853
-52.6446
-51.6357
-51.6418
-51.6542
-51.6725
-51.6967
-51.7265
-51.7619
-51.8027
-51.8489
-51.9009
-51.9591
-52.025
-52.1013
-52.1726
-52.0626
-51.6029
-51.6087
-51.6203
-51.6376
-51.6603
-51.6884
-51.7217
-51.7601
-51.8036
-51.8525
-51.9074
-51.9707
-52.0515
-52.1856
-52.5912
-51.5659
-51.5714
-51.5824
-51.5987
-51.6201
-51.6466
-51.6779
-51.714
-51.7546
-51.7997
-51.8494
-51.9041
-51.9647
-52.0099
-51.8158
-51.5249
-51.5302
-51.5405
-51.556
-51.5763
-51.6013
-51.6309
-51.6647
-51.7024
-51.7436
-51.7873
-51.8333
-51.8886
-52
-52.4952
-51.4802
-51.4851
-51.495
-51.5097
-51.529
-51.5528
-51.5808
-51.6127
-51.6479
-51.6855
-51.723
-51.756
-51.7736
-51.7234
-51.2725
-51.4317
-51.4365
-51.446
-51.46
-51.4785
-51.5012
-51.528
-51.5584
-51.5919
-51.6271
-51.6613
-51.6892
-51.7055
-51.7247
-51.9871
-51.3798
-51.3844
-51.3935
-51.407
-51.4248
-51.4467
-51.4725
-51.502
-51.5346
-51.5693
-51.6033
-51.6305
-51.6355
-51.5568
-51.0944
-51.3246
-51.329
-51.3378
-51.3508
-51.3681
-51.3893
-51.4145
-51.4434
-51.476
-51.5117
-51.5494
-51.587
-51.6236
-51.6551
-51.675
-51.266
-51.2703
-51.2789
-51.2916
-51.3083
-51.3291
-51.3538
-51.3824
-51.4152
-51.4524
-51.4946
-51.5443
-51.6151
-51.7611
-52.2721
-51.2043
-51.2085
-51.2168
-51.2292
-51.2456
-51.266
-51.2903
-51.3186
-51.3514
-51.3894
-51.4337
-51.4871
-51.5543
-51.6131
-51.3977
-51.1394
-51.1435
-51.1517
-51.1639
-51.18
-51.2
-51.2239
-51.2518
-51.2841
-51.3217
-51.3658
-51.4202
-51.4992
-51.6552
-52.2057
-51.0714
-51.0755
-51.0835
-51.0956
-51.1114
-51.1311
-51.1546
-51.1819
-51.2133
-51.2491
-51.2897
-51.3362
-51.3908
-51.4229
-51.1134
-51.0004
-51.0044
-51.0124
-51.0243
-51.04
-51.0595
-51.0826
-51.1093
-51.1395
-51.1729
-51.2086
-51.2467
-51.2978
-51.4275
-52.0947
-50.9263
-50.9303
-50.9383
-50.9501
-50.9658
-50.9851
-51.008
-51.0343
-51.0636
-51.0947
-51.1249
-51.1481
-51.1501
-51.0584
-50.4114
-50.8492
-50.8532
-50.8612
-50.873
-50.8887
-50.9081
-50.931
-50.9573
-50.9864
-51.0169
-51.0451
-51.0642
-51.0674
-51.0746
-51.4131
-50.769
-50.773
-50.7811
-50.793
-50.8088
-50.8284
-50.8517
-50.8784
-50.9084
-50.9403
-50.9706
-50.9912
-50.982
-50.8601
-50.2206
-50.6858
-50.6898
-50.6979
-50.71
-50.726
-50.746
-50.7697
-50.7975
-50.8291
-50.8644
-50.9018
-50.939
-50.9748
-51.0044
-51.0203
-50.5994
-50.6035
-50.6118
-50.624
-50.6403
-50.6606
-50.685
-50.7138
-50.7474
-50.7865
-50.8321
-50.8877
-50.9719
-51.1579
-51.8345
-50.5099
-50.5141
-50.5225
-50.5349
-50.5515
-50.5722
-50.5972
-50.6269
-50.6621
-50.7039
-50.7541
-50.8166
-50.8983
-50.97
-50.6773
-50.4173
-50.4215
-50.43
-50.4426
-50.4595
-50.4806
-50.5061
-50.5364
-50.5722
-50.6149
-50.6664
-50.7322
-50.8316
-51.0348
-51.7655
-50.3213
-50.3256
-50.3343
-50.3471
-50.3643
-50.3857
-50.4115
-50.442
-50.4777
-50.5194
-50.5677
-50.6244
-50.6928
-50.7327
-50.3192
-50.2221
-50.2265
-50.2352
-50.2483
-50.2658
-50.2875
-50.3136
-50.3442
-50.3793
-50.4188
-50.4618
-50.5086
-50.5736
-50.745
-51.6355
-50.1195
-50.1239
-50.1329
-50.1462
-50.1639
-50.186
-50.2125
-50.2432
-50.2779
-50.3154
-50.352
-50.38
-50.3806
-50.2574
-49.3937
-50.0134
-50.018
-50.0271
-50.0407
-50.0588
-50.0813
-50.1083
-50.1396
-50.1748
-50.2121
-50.2469
-50.2704
-50.2736
-50.2833
-50.7368
-49.9039
-49.9085
-49.9178
-49.9317
-49.9502
-49.9733
-50.0011
-50.0335
-50.0703
-50.11
-50.1484
-50.1747
-50.1622
-50.0003
-49.1471
-49.7908
-49.7955
-49.805
-49.8191
-49.8381
-49.8618
-49.8905
-49.9244
-49.9638
-50.0085
-50.0568
-50.106
-50.1547
-50.1966
-50.2214
-49.6741
-49.6789
-49.6885
-49.7029
-49.7222
-49.7466
-49.7762
-49.8117
-49.8539
-49.9038
-49.9633
-50.0376
-50.1517
-50.4042
-51.3174
-49.5536
-49.5585
-49.5683
-49.5829
-49.6026
-49.6274
-49.6578
-49.6945
-49.7386
-49.7922
-49.858
-49.9416
-50.0527
-50.1524
-49.7636
-49.4295
-49.4344
-49.4443
-49.4591
-49.479
-49.5041
-49.535
-49.5722
-49.617
-49.6715
-49.7388
-49.8266
-49.9615
-50.239
-51.2329
-49.3015
-49.3065
-49.3164
-49.3313
-49.3514
-49.3767
-49.4076
-49.4447
-49.4888
-49.5414
-49.6038
-49.6789
-49.7713
-49.8276
-49.2721
-49.1698
-49.1747
-49.1847
-49.1997
-49.2197
-49.245
-49.2758
-49.3124
-49.3551
-49.404
-49.4583
-49.5191
-49.6063
-49.8403
-51.0551
-49.0341
-49.0391
-49.0491
-49.064
-49.0841
-49.1093
-49.1399
-49.1759
-49.2171
-49.2623
-49.3069
-49.341
-49.3394
-49.171
-47.997
-48.8947
-48.8997
-48.9096
-48.9245
-48.9445
-48.9696
-49.0001
-49.0359
-49.0766
-49.1203
-49.1612
-49.1878
-49.1882
-49.1993
-49.8183
-48.7514
-48.7563
-48.7662
-48.781
-48.8008
-48.826
-48.8565
-48.8927
-48.9343
-48.9798
-49.0239
-49.0526
-49.0297
-48.8048
-47.6401
-48.6044
-48.6092
-48.6189
-48.6335
-48.6532
-48.6782
-48.7089
-48.7458
-48.7894
-48.8398
-48.8955
-48.9532
-49.0114
-49.0622
-49.0925
-48.4535
-48.4583
-48.4678
-48.4821
-48.5015
-48.5262
-48.5569
-48.5943
-48.6399
-48.6956
-48.7641
-48.8536
-48.9981
-49.3329
-50.5712
-48.299
-48.3036
-48.3128
-48.3268
-48.3457
-48.3699
-48.4001
-48.4374
-48.4836
-48.5418
-48.6164
-48.7157
-48.8528
-48.9756
-48.4361
-48.1409
-48.1453
-48.1542
-48.1676
-48.1857
-48.2091
-48.2382
-48.2743
-48.3193
-48.3762
-48.4499
-48.5516
-48.7174
-49.0773
-50.4105
-47.9793
-47.9835
-47.9919
-48.0046
-48.0218
-48.0439
-48.0714
-48.1052
-48.1468
-48.1982
-48.2621
-48.343
-48.4473
-48.5024
-47.7305
-47.8143
-47.8183
-47.8261
-47.8381
-47.8541
-47.8747
-47.9
-47.9308
-47.9677
-48.0111
-48.0606
-48.1183
-48.2112
-48.5009
-50.1056
-47.6463
-47.6499
-47.6572
-47.6681
-47.6829
-47.7018
-47.7248
-47.7524
-47.7843
-47.8191
-47.8516
-47.8692
-47.8385
-47.5853
-45.9904
-47.4752
-47.4785
-47.4851
-47.4951
-47.5085
-47.5256
-47.5464
-47.5711
-47.5991
-47.6281
-47.6511
-47.6535
-47.6203
-47.6007
-48.3833
-47.3015
-47.3044
-47.3103
-47.3192
-47.3312
-47.3464
-47.3652
-47.3876
-47.4134
-47.4408
-47.463
-47.4627
-47.3927
-47.0582
-45.4978
-47.1252
-47.1278
-47.1329
-47.1407
-47.1512
-47.1646
-47.1813
-47.2018
-47.2268
-47.2564
-47.2887
-47.3201
-47.3487
-47.3661
-47.3619
-46.9467
-46.9489
-46.9532
-46.9598
-46.9687
-46.9801
-46.9946
-47.0132
-47.0373
-47.0694
-47.1133
-47.1796
-47.3126
-47.6882
-49.2288
-46.7663
-46.768
-46.7716
-46.7768
-46.7839
-46.7931
-46.805
-46.8208
-46.8425
-46.8737
-46.9202
-46.9928
-47.1079
-47.2004
-46.4505
-46.5842
-46.5855
-46.5882
-46.5921
-46.5973
-46.604
-46.6127
-46.6244
-46.6412
-46.6668
-46.7071
-46.7764
-46.9191
-47.2966
-48.8782
-46.4007
-46.4016
-46.4034
-46.4059
-46.4092
-46.4131
-46.4181
-46.4247
-46.4342
-46.4489
-46.4719
-46.5091
-46.5672
-46.5557
-45.5201
-46.2161
-46.2166
-46.2176
-46.2188
-46.2201
-46.2213
-46.2222
-46.223
-46.2238
-46.2246
-46.2249
-46.2273
-46.2637
-46.5251
-48.3386
-46.0307
-46.0309
-46.0311
-46.0311
-46.0307
-46.0292
-46.0264
-46.0215
-46.0135
-46
-45.9744
-45.922
-45.8039
-45.4158
-43.4462
-45.8446
-45.8446
-45.8442
-45.8433
-45.8414
-45.8378
-45.8318
-45.8223
-45.8074
-45.7832
-45.7405
-45.6623
-45.5315
-45.4039
-46.1684
-45.6582
-45.658
-45.6573
-45.6558
-45.6529
-45.6478
-45.6396
-45.627
-45.608
-45.5785
-45.5291
-45.4392
-45.2569
-44.7717
-42.9393
-45.4715
-45.4712
-45.4704
-45.4687
-45.4653
-45.4596
-45.4504
-45.4364
-45.4161
-45.3869
-45.3439
-45.2804
-45.1926
-45.0739
-44.932
-45.2845
-45.2843
-45.2837
-45.2821
-45.279
-45.2734
-45.2642
-45.2504
-45.2306
-45.2042
-45.171
-45.1383
-45.1499
-45.3913
-46.8323
-45.0972
-45.0972
-45.0971
-45.0962
-45.0939
-45.0893
-45.0813
-45.0685
-45.0501
-45.0255
-44.9955
-44.9656
-44.9477
-44.8745
-43.9364
-44.9094
-44.9098
-44.9104
-44.9107
-44.91
-44.9074
-44.9015
-44.8909
-44.874
-44.8498
-44.818
-44.7847
-44.7839
-44.9575
-46.1982
-44.7208
-44.7218
-44.7234
-44.7254
-44.727
-44.7273
-44.7248
-44.7177
-44.7034
-44.6788
-44.6394
-44.5812
-44.4989
-44.2984
-43.1311
-44.5312
-44.5327
-44.5358
-44.5399
-44.5445
-44.5488
-44.5512
-44.5496
-44.5402
-44.5173
-44.4719
-44.3944
-44.2962
-44.3096
-45.4563
-44.3399
-44.3422
-44.3468
-44.3534
-44.3618
-44.3712
-44.3804
-44.387
-44.3865
-44.3708
-44.3246
-44.222
-44.016
-43.533
-41.7893
-44.1466
-44.1497
-44.1559
-44.1653
-44.1779
-44.1935
-44.2113
-44.2295
-44.2437
-44.2448
-44.2144
-44.1214
-43.9282
-43.6309
-43.7121
-43.9506
-43.9544
-43.9622
-43.9744
-43.9914
-44.0138
-44.0419
-44.075
-44.1103
-44.14
-44.1454
-44.0906
-43.9126
-43.4651
-42.2355
-43.7516
-43.7559
-43.765
-43.7796
-43.8007
-43.8298
-43.8688
-43.9191
-43.9811
-44.0512
-44.1162
-44.1454
-44.084
-43.8415
-43.3731
-43.549
-43.5537
-43.5636
-43.5798
-43.604
-43.6388
-43.6877
-43.7552
-43.8465
-43.9654
-44.1099
-44.263
-44.3814
-44.3739
-44.1915
-43.3427
-43.3473
-43.3573
-43.3738
-43.3994
-43.4375
-43.4935
-43.575
-43.6929
-43.8612
-44.0954
-44.4047
-44.7661
-45.0268
-44.8094
-43.1327
-43.1369
-43.1458
-43.1612
-43.1857
-43.2236
-43.2816
-43.3698
-43.5044
-43.7105
-44.0267
-44.5104
-45.2207
-46.0109
-45.3624
-42.9195
-42.9225
-42.9294
-42.9417
-42.9622
-42.9954
-43.0484
-43.1326
-43.2665
-43.4825
-43.8395
-44.4587
-45.62
-47.9932
-53.2018
-42.7036
-42.7051
-42.7087
-42.716
-42.7294
-42.7531
-42.7935
-42.8608
-42.9719
-43.156
-43.4681
-44.0307
-45.178
-48.0053
-56.9336
-58.5051
-49.3742
-46.4544
-45.2563
-44.6592
-44.3211
-44.116
-43.9877
-43.9062
-43.8543
-43.8215
-43.8009
-43.7885
-43.7815
-43.7783
-55.0571
-49.3872
-46.8838
-45.6637
-45.0068
-44.6224
-44.3848
-44.2335
-44.1353
-44.0711
-44.029
-44.0017
-43.9845
-43.9745
-43.9698
-46.2206
-47.2004
-46.4223
-45.6798
-45.1634
-44.8209
-44.5939
-44.4425
-44.3408
-44.2722
-44.2259
-44.1951
-44.1751
-44.1632
-44.1577
-46.041
-46.2332
-45.9366
-45.5386
-45.1977
-44.9385
-44.7505
-44.617
-44.5231
-44.4574
-44.4117
-44.3804
-44.3597
-44.3471
-44.3412
-45.7338
-45.6046
-45.5215
-45.3577
-45.1734
-45.006
-44.8694
-44.7642
-44.6858
-44.6284
-44.587
-44.5578
-44.5381
-44.5259
-44.5201
-44.3081
-44.9429
-45.1629
-45.191
-45.1355
-45.0513
-44.9665
-44.893
-44.8338
-44.7879
-44.7534
-44.7283
-44.7108
-44.6999
-44.6946
-43.6613
-44.5684
-44.9378
-45.0821
-45.1159
-45.0961
-45.0558
-45.0121
-44.9724
-44.9392
-44.9129
-44.8929
-44.8786
-44.8694
-44.8649
-44.4238
-44.5664
-44.8693
-45.0497
-45.1317
-45.1545
-45.1475
-45.1285
-45.1065
-45.0855
-45.0675
-45.053
-45.0423
-45.0352
-45.0317
-43.0598
-44.4522
-44.8861
-45.0855
-45.1868