/*--------------------------------*- C++ -*----------------------------------*\
| =========                 |                                                 |
| \\      /  F ield         | OpenFOAM: The Open Source CFD Toolbox           |
|  \\    /   O peration     | Version:  5.x                                   |
|   \\  /    A nd           | Web:      www.OpenFOAM.org                      |
|    \\/     M anipulation  |                                                 |
\*---------------------------------------------------------------------------*/
FoamFile
{
    version     2.0;
    format      ascii;
    class       volScalarField;
    location    "3.3";
    object      gradTy;
}
// * * * * * * * * * * * * * * * * * * * * * * * * * * * * * * * * * * * * * //

dimensions      [0 -1 0 1 0 0 0];

internalField   nonuniform List<scalar> 
6300
(
32275.9
32227.8
32179.7
32131.7
32083.7
32035.9
31988.1
31940.6
31893.2
31845.9
31799
31752.2
31705.7
31659.5
31613.5
-0.0169283
-0.0508557
-0.0849819
-0.119396
-0.154119
-0.189079
-0.224087
-0.258826
-0.292848
-0.3256
-0.356483
-0.384945
-0.410617
-0.433459
-0.453887
-0.0281338
-0.0845363
-0.141317
-0.198651
-0.256604
-0.315079
-0.37378
-0.432175
-0.489491
-0.544742
-0.596822
-0.644668
-0.687497
-0.725103
-0.758119
-0.0392067
-0.117838
-0.197092
-0.27728
-0.358555
-0.440841
-0.523763
-0.606586
-0.688178
-0.767032
-0.841371
-0.909377
-0.969572
-1.0213
-1.06527
-0.0500616
-0.150517
-0.251931
-0.354819
-0.459492
-0.565962
-0.67384
-0.782219
-0.889594
-0.993828
-1.09224
-1.18189
-1.26009
-1.32526
-1.37779
-0.0605809
-0.182228
-0.305288
-0.430561
-0.558614
-0.689658
-0.823392
-0.958831
-1.09412
-1.22641
-1.35184
-1.4658
-1.56361
-1.6418
-1.6997
-0.0706139
-0.212521
-0.356424
-0.503512
-0.654734
-0.810647
-0.971221
-1.13557
-1.30163
-1.46583
-1.62288
-1.76581
-1.88673
-1.9786
-2.03804
-0.0799668
-0.240814
-0.404369
-0.572321
-0.746148
-0.926959
-1.11526
-1.31057
-1.51096
-1.71238
-1.908
-2.08778
-2.23886
-2.34776
-2.40507
-0.0884044
-0.266393
-0.447908
-0.635242
-0.83056
-1.03576
-1.25225
-1.48046
-1.71923
-1.96469
-2.20893
-2.43839
-2.63312
-2.76845
-2.82214
-0.0956597
-0.28844
-0.485618
-0.690162
-0.905064
-1.13327
-1.37748
-1.63977
-1.92075
-2.21818
-2.52457
-2.82369
-3.08669
-3.2707
-3.32693
-0.101451
-0.306082
-0.515949
-0.734707
-0.966242
-1.21473
-1.48461
-1.78034
-2.10578
-2.46267
-2.84741
-3.24502
-3.61919
-3.90062
-3.98704
-0.105511
-0.31848
-0.537376
-0.766453
-1.01044
-1.27478
-1.56584
-1.89115
-2.25931
-2.67924
-3.15733
-3.68973
-4.24432
-4.72548
-4.93013
-0.107622
-0.324941
-0.548605
-0.783265
-1.03427
-1.30806
-1.61279
-1.95905
-2.36101
-2.83759
-3.41285
-4.11217
-4.94278
-5.82674
-6.42137
-0.107655
-0.325048
-0.548821
-0.783712
-1.03527
-1.31039
-1.61815
-1.9712
-2.38804
-2.89718
-3.54422
-4.40325
-5.58779
-7.21724
-9.07253
-0.105603
-0.318762
-0.537903
-0.767469
-1.01267
-1.28002
-1.57819
-1.9195
-2.32272
-2.8188
-3.46354
-4.36874
-5.7878
-8.3818
-14.1615
31571.7
31533.9
31496.3
31458.9
31421.8
31384.9
31348.3
31312
31275.9
31240.2
31204.7
31169.6
31134.9
31100.5
31066.4
31032.8
30999.5
30966.6
30934.1
30902
30870.2
30838.8
30807.8
30777.2
30746.9
30717
30687.3
30658
30628.9
30600.1
30571.5
30543.2
30515.1
30487.1
30459.4
30431.8
30404.3
30377
30349.9
30322.8
30295.8
30269
30242.2
30215.5
30188.9
30162.4
30135.9
30109.5
30083.1
30056.8
30030.5
30004.2
29977.9
29951.7
29925.4
29899.1
29872.7
29846.3
29819.9
29793.3
29766.7
29740
29713.1
29686.2
29659.1
29631.9
29604.5
29577
29549.4
29521.6
29493.6
29465.4
29437.1
29408.5
29379.8
29350.9
29321.8
29292.5
29263
29233.3
29203.4
29173.2
29142.9
29112.3
29081.4
29050.4
29019.1
28987.5
28955.8
28923.7
-0.471252
-0.486895
-0.503325
-0.521474
-0.542125
-0.565765
-0.592475
-0.621879
-0.653181
-0.68526
-0.716833
-0.746617
-0.773477
-0.79652
-0.815115
-0.828868
-0.837547
-0.84102
-0.839212
-0.832097
-0.819727
-0.802271
-0.780043
-0.753505
-0.723248
-0.689948
-0.654324
-0.617104
-0.579004
-0.540716
-0.502897
-0.46614
-0.430942
-0.397677
-0.366578
-0.33775
-0.311198
-0.286872
-0.264703
-0.244612
-0.226494
-0.210175
-0.195369
-0.181648
-0.168445
-0.155101
-0.140942
-0.125365
-0.107919
-0.0883582
-0.0666505
-0.0429575
-0.0175888
0.00904859
0.0364927
0.0642568
0.0918523
0.118814
0.144731
0.169285
0.192281
0.21366
0.233482
0.251889
0.26905
0.285115
0.300191
0.314343
0.327623
0.340108
0.351917
0.363218
0.374195
0.385008
0.395757
0.406464
0.417083
0.427536
0.437751
0.447683
0.457313
0.466608
0.47547
0.483679
0.490876
0.496564
0.500161
0.501064
0.498732
0.492745
-0.785665
-0.810265
-0.836176
-0.86519
-0.898843
-0.938124
-0.983242
-1.03353
-1.08748
-1.143
-1.19767
-1.24912
-1.29533
-1.33475
-1.36639
-1.38969
-1.40438
-1.41031
-1.40734
-1.39541
-1.37453
-1.34495
-1.30717
-1.26201
-1.21051
-1.15388
-1.09336
-1.03019
-0.965592
-0.900746
-0.83678
-0.774735
-0.715489
-0.659685
-0.607699
-0.559653
-0.515489
-0.475071
-0.438263
-0.404962
-0.375057
-0.348331
-0.324353
-0.302399
-0.281454
-0.260301
-0.237671
-0.212436
-0.183765
-0.151225
-0.114799
-0.0748272
-0.0319056
0.0132197
0.0597302
0.106777
0.153508
0.199094
0.242793
0.284025
0.322447
0.357982
0.390795
0.421206
0.44957
0.476179
0.501202
0.524705
0.546722
0.56734
0.586765
0.605315
0.623362
0.641234
0.659124
0.677049
0.694881
0.712429
0.729534
0.746134
0.762254
0.777926
0.793063
0.807347
0.820157
0.830593
0.837566
0.83995
0.836738
0.827175
-1.10066
-1.13169
-1.1645
-1.20216
-1.24739
-1.302
-1.36649
-1.4398
-1.51945
-1.60187
-1.68304
-1.7591
-1.82685
-1.88409
-1.92957
-1.96283
-1.98374
-1.99228
-1.98828
-1.97148
-1.94176
-1.8993
-1.84481
-1.77952
-1.70506
-1.62329
-1.53607
-1.44521
-1.35241
-1.25938
-1.16777
-1.07917
-0.994943
-0.91606
-0.843008
-0.775825
-0.714249
-0.657933
-0.606634
-0.560283
-0.518903
-0.482394
-0.450286
-0.421561
-0.39463
-0.367491
-0.33802
-0.304326
-0.265054
-0.219561
-0.167928
-0.110821
-0.0492741
0.015516
0.0823126
0.149871
0.216925
0.282203
0.344517
0.402921
0.456876
0.506328
0.551672
0.593569
0.632717
0.669621
0.704495
0.7373
0.767923
0.796379
0.822957
0.848218
0.872863
0.897515
0.922518
0.947845
0.973163
0.998029
1.02211
1.04534
1.06791
1.09007
1.11195
1.13319
1.15291
1.16966
1.18163
1.18696
1.18396
1.1714
-1.41729
-1.45055
-1.48583
-1.52823
-1.58242
-1.65167
-1.73705
-1.83698
-1.94743
-2.06256
-2.17582
-2.28108
-2.37357
-2.4504
-2.51043
-2.55378
-2.581
-2.5924
-2.58772
-2.56628
-2.52743
-2.4711
-2.39814
-2.31036
-2.21029
-2.10068
-1.9842
-1.86317
-1.73977
-1.61614
-1.49461
-1.37751
-1.26692
-1.16427
-1.07011
-0.984177
-0.905698
-0.833845
-0.768164
-0.708742
-0.656042
-0.61044
-0.57168
-0.538481
-0.508459
-0.478401
-0.444824
-0.404632
-0.355693
-0.29714
-0.22935
-0.153627
-0.0717383
0.0144904
0.10336
0.193247
0.282452
0.369128
0.451413
0.527766
0.597326
0.66013
0.717046
0.76943
0.818631
0.865528
0.910306
0.95258
0.991789
1.02768
1.0606
1.09157
1.12192
1.15287
1.18503
1.21824
1.2517
1.28437
1.31554
1.34515
1.37377
1.4023
1.43139
1.46091
1.48964
1.51531
1.53499
1.54567
1.5447
1.53017
-1.73766
-1.76646
-1.79685
-1.83725
-1.89568
-1.97806
-2.08658
-2.21895
-2.36859
-2.52587
-2.68004
-2.82135
-2.94278
-3.04082
-3.11524
-3.16789
-3.20097
-3.2156
-3.21122
-3.18606
-3.13821
-3.06678
-2.97273
-2.85884
-2.72916
-2.58792
-2.43878
-2.2845
-2.12736
-1.96984
-1.81501
-1.66643
-1.52742
-1.40019
-1.28531
-1.18175
-1.08756
-1.00083
-0.920641
-0.847487
-0.782929
-0.728607
-0.685044
-0.650812
-0.622327
-0.594374
-0.561147
-0.517537
-0.460183
-0.388031
-0.30221
-0.205332
-0.100478
0.00963229
0.122906
0.237566
0.351581
0.46233
0.566806
0.66234
0.74745
0.822353
0.888885
0.949811
1.0078
1.06442
1.11966
1.17221
1.22037
1.26316
1.301
1.33574
1.37005
1.40639
1.44595
1.48823
1.53128
1.57279
1.61116
1.64631
1.6797
1.71365
1.75015
1.78972
1.83073
1.86951
1.90127
1.92111
1.92491
1.90985
-2.0662
-2.08002
-2.09342
-2.12024
-2.17441
-2.26673
-2.4017
-2.57598
-2.77868
-2.99359
-3.20269
-3.39018
-3.54557
-3.66515
-3.75132
-3.8101
-3.84743
-3.86607
-3.86457
-3.83844
-3.78282
-3.69495
-3.57578
-3.42998
-3.26455
-3.08645
-2.90067
-2.70984
-2.51541
-2.31953
-2.12628
-1.94145
-1.77085
-1.61823
-1.48408
-1.36571
-1.25856
-1.15827
-1.06287
-0.973732
-0.894958
-0.831161
-0.784856
-0.754748
-0.735317
-0.717823
-0.692308
-0.650113
-0.585864
-0.498486
-0.390876
-0.268408
-0.136675
0.00033133
0.140568
0.282924
0.42552
0.564675
0.695187
0.812032
0.912378
0.996739
1.0689
1.13453
1.19905
1.2654
1.33299
1.39825
1.45679
1.50589
1.54595
1.58062
1.61537
1.65537
1.70307
1.75717
1.8132
1.86582
1.9115
1.95009
1.98492
2.0214
2.06457
2.11655
2.17508
2.23392
2.28479
2.31969
2.33237
2.31878
-2.41165
-2.39411
-2.37062
-2.36376
-2.39813
-2.49391
-2.66013
-2.89199
-3.17107
-3.46957
-3.75635
-4.00511
-4.1998
-4.33745
-4.42668
-4.483
-4.52063
-4.54537
-4.55317
-4.53309
-4.47365
-4.36796
-4.21694
-4.02913
-3.8179
-3.59577
-3.36954
-3.14008
-2.90524
-2.66513
-2.42511
-2.19565
-1.98804
-1.80929
-1.65976
-1.53315
-1.41928
-1.30828
-1.19567
-1.08462
-0.984973
-0.90807
-0.860875
-0.842836
-0.845036
-0.85233
-0.846985
-0.813934
-0.744321
-0.637536
-0.500389
-0.344267
-0.179902
-0.0130555
0.155746
0.328508
0.504994
0.680047
0.843837
0.986073
1.10092
1.18929
1.25892
1.32144
1.38825
1.46519
1.55026
1.63455
1.70739
1.76221
1.79926
1.82593
1.85372
1.8938
1.95153
2.0239
2.10056
2.16938
2.22258
2.25977
2.28827
2.32001
2.3668
2.43437
2.51942
2.61024
2.69168
2.75066
2.77802
2.7686
-2.79089
-2.71666
-2.62378
-2.54779
-2.53331
-2.61953
-2.82389
-3.13984
-3.53534
-3.96226
-4.36454
-4.69768
-4.93591
-5.07923
-5.14913
-5.18252
-5.21208
-5.2487
-5.28157
-5.28401
-5.2307
-5.10583
-4.91062
-4.66151
-4.38647
-4.11043
-3.84252
-3.57749
-3.30206
-3.00996
-2.70806
-2.41771
-2.16297
-1.95751
-1.80168
-1.68144
-1.57506
-1.45978
-1.32534
-1.17818
-1.04131
-0.94124
-0.893916
-0.900765
-0.946384
-1.00398
-1.04048
-1.02929
-0.955171
-0.819142
-0.636035
-0.430781
-0.225465
-0.0280046
0.16649
0.370004
0.587821
0.812936
1.02484
1.20088
1.32891
1.41017
1.46049
1.50355
1.56419
1.65462
1.77002
1.88867
1.9853
2.04543
2.06885
2.07096
2.07564
2.10811
2.18019
2.28567
2.40043
2.49662
2.55788
2.58311
2.58809
2.59803
2.64017
2.72805
2.85647
3.00098
3.13184
3.228
3.27746
3.27576
-3.236
-3.06598
-2.85248
-2.64313
-2.52334
-2.57486
-2.82679
-3.27295
-3.85417
-4.49023
-5.07209
-5.5267
-5.80847
-5.92645
-5.92389
-5.88725
-5.89301
-5.95704
-6.05342
-6.11478
-6.09037
-5.94452
-5.68143
-5.33073
-4.9559
-4.61283
-4.31072
-4.02924
-3.72222
-3.36823
-2.97367
-2.58776
-2.26616
-2.03344
-1.89152
-1.80889
-1.74275
-1.63796
-1.47236
-1.25596
-1.04364
-0.8974
-0.847853
-0.901732
-1.02934
-1.18482
-1.30144
-1.33406
-1.25392
-1.06726
-0.802261
-0.516035
-0.258341
-0.037276
0.165672
0.392344
0.661596
0.966316
1.25896
1.48632
1.62576
1.67713
1.67406
1.66186
1.69877
1.80963
1.98664
2.17604
2.31729
2.38307
2.37064
2.3138
2.25907
2.26687
2.36223
2.53555
2.72851
2.87559
2.94645
2.93698
2.88208
2.83103
2.84894
2.96462
3.17157
3.41254
3.62309
3.77359
3.85153
3.86316
-3.80677
-3.4778
-3.07509
-2.60939
-2.26656
-2.24148
-2.5499
-3.21147
-4.09391
-5.09614
-5.96278
-6.60454
-6.91682
-6.94722
-6.7477
-6.53089
-6.49002
-6.61882
-6.87568
-7.06908
-7.12493
-6.95211
-6.57846
-6.03479
-5.47972
-5.05634
-4.74934
-4.51787
-4.21012
-3.78508
-3.227
-2.66537
-2.2416
-1.97882
-1.89622
-1.91283
-1.96636
-1.90401
-1.69286
-1.32824
-0.951201
-0.714737
-0.653272
-0.796959
-1.07258
-1.42212
-1.68389
-1.80174
-1.70665
-1.42879
-0.999686
-0.560843
-0.239123
-0.0211104
0.130041
0.352703
0.683616
1.13638
1.58637
1.89766
2.04869
2.02178
1.90004
1.74873
1.72612
1.86863
2.18468
2.532
2.75722
2.83257
2.73566
2.55289
2.35173
2.29885
2.43134
2.7565
3.122
3.36368
3.4501
3.35564
3.16997
2.96417
2.91637
3.06928
3.43718
3.86743
4.20034
4.42322
4.52056
4.56122
-4.61515
-3.9957
-3.38827
-2.39861
-1.5521
-1.42777
-1.7644
-2.83189
-4.16115
-5.89736
-7.1774
-8.15699
-8.43127
-8.29935
-7.59675
-6.92158
-6.84317
-7.09671
-7.78991
-8.22211
-8.48947
-8.24972
-7.72119
-6.75622
-5.81496
-5.33341
-5.08037
-5.11762
-4.86826
-4.39487
-3.48696
-2.54606
-1.98688
-1.66651
-1.75989
-1.96556
-2.35883
-2.3865
-2.1366
-1.42075
-0.658821
-0.282683
-0.165986
-0.504982
-1.01228
-1.78878
-2.27668
-2.57925
-2.42592
-2.01158
-1.21469
-0.440637
-0.0742963
0.0875342
-0.0124093
0.153275
0.526208
1.30644
2.10944
2.53566
2.72366
2.4988
2.16437
1.64604
1.51142
1.67345
2.33341
3.0595
3.40868
3.52585
3.22008
2.81426
2.22668
2.05977
2.21894
2.91535
3.68986
4.0715
4.21045
3.90192
3.48322
2.86623
2.69135
2.86098
3.60979
4.45935
4.93304
5.25071
5.26841
5.41456
-5.9031
-4.49617
-4.25175
-1.98153
0.202453
0.0498831
0.0736935
-2.07523
-3.64224
-7.35532
-8.8245
-10.7249
-10.5305
-10.473
-8.40606
-6.45263
-6.71803
-6.94126
-9.07973
-9.61225
-10.584
-9.96285
-9.49204
-7.4431
-5.48778
-5.28098
-4.99296
-6.12971
-5.84858
-5.62992
-3.79389
-1.87649
-1.38772
-0.757881
-1.46133
-1.74763
-3.27724
-3.26815
-3.25069
-1.57894
0.18982
0.523693
0.978188
0.0300326
-0.563692
-2.57032
-3.13565
-4.01253
-3.52025
-3.14441
-1.39595
0.267556
0.38591
0.573994
-0.536502
-0.343723
-0.216803
1.44464
3.17602
3.51764
3.99412
3.13454
2.69446
0.991772
0.870543
0.762224
2.3879
4.13071
4.39523
4.82917
3.84957
3.33837
1.4969
1.35214
1.23393
2.96268
4.82437
5.12973
5.61614
4.60781
4.083
2.13261
1.97119
1.81957
3.63813
5.59329
5.89114
6.511
5.83218
6.53994
-8.53842
-3.32249
-8.03221
-1.4401
5.32182
1.27373
5.04072
-2.15633
-0.0327847
-12.0443
-9.85045
-16.3092
-12.4322
-15.5403
-9.0516
-2.78832
-6.65335
-4.02758
-12.6818
-10.3697
-14.9719
-11.4592
-13.5351
-7.99476
-2.64237
-5.3451
-2.85344
-9.18315
-6.73849
-9.19355
-4.21748
0.850798
-0.991141
2.07126
-1.76294
0.261223
-6.41085
-4.16127
-6.74641
-1.87618
3.10533
1.15704
4.14289
0.0553231
1.92018
-5.42672
-3.54529
-7.41673
-4.44618
-6.25308
-1.45407
3.20157
0.746526
2.93127
-2.93648
-0.745026
-3.16869
1.48301
6.24473
4.30635
7.18939
3.16713
5.04364
-1.93888
0.212002
-2.64502
2.27465
7.3316
5.13875
8.16893
3.80554
5.77903
-1.67517
0.607219
-2.40971
2.81951
8.20092
5.92816
9.17513
4.61838
6.73653
-1.17618
1.23781
-2.05797
3.47063
9.11458
6.38639
9.64215
4.40015
8.57779
-17.9853
12.1443
-28.0871
-1.14302
26.0078
-8.75594
25.7962
-15.6589
23.9314
-37.1891
1.58357
-36.7771
-4.27514
-34.4268
-9.37255
15.4608
-15.9354
15.1294
-32.0757
-1.17029
-31.0456
-4.90797
-28.5458
-8.27597
11.8023
-12.8894
11.9887
-24.872
-0.573085
-23.4584
-4.77425
13.5284
-7.65727
14.8312
-10.5011
14.7922
-22.3923
1.90701
-20.9786
-2.3344
15.999
-5.3156
17.4926
-8.49178
17.6682
-21.5729
4.32819
-20.6745
1.50626
-18.8755
-1.30698
16.3737
-5.57544
16.8829
-16.9431
5.4981
-16.3105
1.36152
18.9601
-1.84924
20.3269
-5.29605
20.1483
-18.0232
6.76329
-17.2522
1.96215
20.9706
-1.64045
22.1538
-5.36515
21.794
-18.8694
7.49179
-17.9292
2.45575
22.598
-1.22323
23.9701
-4.98425
23.8331
-19.3566
8.72525
-18.6437
3.1359
24.6907
-1.73623
25.009
-10.5972
16.4179
28888.3
28849.2
28809.9
28770.2
28730.3
28690.1
28649.7
28609
28568.2
28527.2
28486.1
28444.9
28403.5
28362.1
28320.7
0.481867
0.46436
0.441543
0.414074
0.382822
0.348736
0.312728
0.2756
0.237995
0.200378
0.163044
0.126141
0.0896948
0.0536404
0.0178488
0.809178
0.779671
0.740944
0.694228
0.64111
0.583296
0.522402
0.459817
0.396632
0.333615
0.271237
0.209713
0.149053
0.0891137
0.029649
1.14635
1.10419
1.04833
0.980771
0.904081
0.820925
0.733758
0.644633
0.555102
0.466218
0.378582
0.292425
0.207692
0.124115
0.0412852
1.49819
1.4423
1.36727
1.27633
1.17341
1.06247
0.946995
0.829793
0.712881
0.597541
0.484428
0.373706
0.265172
0.158368
0.0526634
1.87097
1.79951
1.70208
1.58382
1.4507
1.30846
1.1619
1.01461
0.869048
0.726602
0.587857
0.45278
0.320914
0.191516
0.0636636
2.27285
2.1827
2.05772
1.90614
1.73707
1.5587
1.37742
1.19765
1.02205
0.851928
0.687588
0.528621
0.374174
0.223112
0.0741362
2.71499
2.6009
2.4401
2.24607
2.03276
1.81179
1.59135
1.3764
1.16949
0.971427
0.78191
0.599919
0.424033
0.252612
0.0839017
3.21326
3.06628
2.85609
2.60561
2.33638
2.06448
1.79973
1.54702
1.30798
1.08231
0.868657
0.665079
0.469408
0.279389
0.0927551
3.79099
3.59543
3.31289
2.98441
2.64324
2.31042
1.99624
1.70395
1.43301
1.18112
0.945264
0.722288
0.509102
0.302767
0.100477
4.48519
4.21129
3.81546
3.37589
2.9422
2.53825
2.17116
1.83963
1.53899
1.26383
1.00893
0.769658
0.541914
0.322078
0.106854
5.3683
4.94745
4.3604
3.76011
3.21106
2.72939
2.31079
1.94453
1.61953
1.32623
1.05693
0.805451
0.566788
0.336757
0.11171
6.62248
5.85041
4.91919
4.09208
3.41186
2.8574
2.39817
2.00827
1.66837
1.36462
1.08707
0.82839
0.583001
0.346441
0.114932
8.73965
6.91248
5.37539
4.27729
3.48667
2.89018
2.41631
2.02203
1.68105
1.37678
1.09829
0.837999
0.590359
0.351057
0.116505
12.8595
7.68333
5.39222
4.1548
3.36728
2.80044
2.35499
1.98254
1.657
1.36312
1.09126
0.83491
0.589348
0.350907
0.116529
-0.102072
-0.307939
-0.519078
-0.739353
-0.973219
-1.22611
-1.50506
-1.81972
-2.18432
-2.6215
-3.17088
-3.91054
-5.01757
-6.96136
-11.1853
-0.0975326
-0.294037
-0.49492
-0.703309
-0.922665
-1.15696
-1.41092
-1.69027
-2.00201
-2.35426
-2.75434
-3.19833
-3.6239
-3.69347
-1.76308
-0.091991
-0.277086
-0.465535
-0.659627
-0.861707
-1.07413
-1.29912
-1.5383
-1.7915
-2.05378
-2.30724
-2.49885
-2.47737
-1.81434
0.66941
-0.0856738
-0.257795
-0.432216
-0.610378
-0.793537
-0.982546
-1.17743
-1.37653
-1.57466
-1.75936
-1.90304
-1.9473
-1.77628
-1.19953
-0.125094
-0.0788159
-0.236899
-0.396282
-0.557637
-0.721274
-0.886841
-1.05278
-1.21539
-1.36709
-1.49337
-1.56784
-1.54519
-1.35685
-0.930266
-0.292178
-0.0716415
-0.21509
-0.358962
-0.503286
-0.647642
-0.79084
-0.93041
-1.0618
-1.17711
-1.26332
-1.30001
-1.25808
-1.10282
-0.807797
-0.366918
-0.0643489
-0.192976
-0.321312
-0.44889
-0.574784
-0.697321
-0.813677
-0.919322
-1.00732
-1.06759
-1.08673
-1.04959
-0.945792
-0.786534
-0.645058
-0.0571021
-0.171053
-0.284169
-0.395636
-0.504223
-0.608054
-0.704339
-0.789062
-0.85673
-0.900391
-0.912451
-0.887288
-0.827218
-0.752822
-0.711772
-0.0500274
-0.149699
-0.248153
-0.344357
-0.436931
-0.523989
-0.602986
-0.670602
-0.722774
-0.755095
-0.763963
-0.749129
-0.71851
-0.69586
-0.729455
-0.0432155
-0.129178
-0.21368
-0.295571
-0.373433
-0.445479
-0.509491
-0.56282
-0.602561
-0.626045
-0.631876
-0.621839
-0.604185
-0.599728
-0.659515
-0.036725
-0.109658
-0.181
-0.249556
-0.313937
-0.372507
-0.423368
-0.464427
-0.493595
-0.509211
-0.510742
-0.499739
-0.480615
-0.458867
-0.422999
-0.0305895
-0.0912319
-0.150235
-0.206411
-0.25844
-0.304843
-0.344004
-0.374242
-0.393995
-0.402111
-0.398241
-0.383171
-0.358796
-0.327693
-0.29764
-0.0248224
-0.0739314
-0.121413
-0.166118
-0.20681
-0.242164
-0.270787
-0.291292
-0.302432
-0.303288
-0.293442
-0.272947
-0.241587
-0.195667
-0.113371
-0.0194231
-0.0577484
-0.0944978
-0.128579
-0.158849
-0.184114
-0.203158
-0.214795
-0.217967
-0.211853
-0.195965
-0.170145
-0.134429
-0.0887879
-0.0321676
-0.0143814
-0.0426471
-0.0694136
-0.0936567
-0.114324
-0.130338
-0.140621
-0.144128
-0.139908
-0.127164
-0.105314
-0.0740958
-0.0341075
0.0105784
0.0409194
-0.00968064
-0.0285741
-0.0460598
-0.0611862
-0.0729884
-0.0804936
-0.0827352
-0.0787747
-0.0677235
-0.0487564
-0.0210993
0.0159818
0.0630072
0.120011
0.191961
-0.00530039
-0.0154655
-0.0243219
-0.0309923
-0.0345961
-0.0342551
-0.0291027
-0.0182917
-0.000989805
0.0236582
0.0566397
0.0992745
0.15326
0.21919
0.285773
-0.00121827
-0.00325239
-0.00407948
-0.00289562
0.00109864
0.00869209
0.0206554
0.0377389
0.060691
0.0903289
0.127744
0.174809
0.235315
0.318028
0.448928
0.00258887
0.00813594
0.0147895
0.0232822
0.0343362
0.0486551
0.0669136
0.0897509
0.11778
0.151644
0.192213
0.241119
0.302042
0.383532
0.503785
0.00614405
0.0187695
0.0324046
0.0477145
0.0653494
0.0859333
0.110049
0.138215
0.17087
0.208355
0.250967
0.299204
0.354573
0.422245
0.519144
0.00946954
0.0287157
0.0488802
0.0705659
0.0943579
0.120811
0.150426
0.183619
0.220658
0.26156
0.305898
0.352458
0.398631
0.440793
0.489954
0.0125864
0.038038
0.0643233
0.0919886
0.121563
0.153544
0.188376
0.226409
0.267817
0.31243
0.35937
0.406113
0.445532
0.45461
0.342521
0.0155143
0.0467955
0.0788322
0.11212
0.14714
0.18435
0.224161
0.266913
0.312799
0.361733
0.413062
0.464992
0.513559
0.552689
0.593027
0.0182714
0.0550425
0.0924966
0.131083
0.171243
0.213402
0.257963
0.305296
0.355713
0.409418
0.466415
0.526345
0.588206
0.650066
0.707781
0.0208748
0.0628296
0.105399
0.148989
0.194003
0.24084
0.2899
0.341598
0.396395
0.454862
0.517804
0.586494
0.662951
0.750441
0.858237
0.0233405
0.0702044
0.117617
0.165942
0.215544
0.266789
0.320065
0.375807
0.434582
0.497244
0.565271
0.641369
0.730133
0.836851
0.952855
0.0256838
0.0772129
0.129226
0.182044
0.235988
0.291384
0.348577
0.407973
0.470126
0.535953
0.607212
0.687577
0.784946
0.916957
1.12875
0.0279199
0.0839002
0.140301
0.197399
0.255469
0.314784
0.37562
0.438285
0.503176
0.570946
0.642916
0.722115
0.815797
0.941812
1.14617
0.0300634
0.0903103
0.150916
0.212115
0.274133
0.337182
0.401453
0.467109
0.53428
0.603076
0.673689
0.746741
0.824286
0.912409
1.02413
0.0321283
0.0964859
0.161145
0.226299
0.292128
0.358787
0.426385
0.494941
0.564307
0.633998
0.702859
0.768389
0.8255
0.866761
0.909021
0.0341278
0.102467
0.171055
0.240049
0.309592
0.379795
0.45071
0.52227
0.594161
0.665546
0.734429
0.79603
0.837778
0.820561
0.59271
0.0360741
0.10829
0.180708
0.253455
0.326645
0.400364
0.474648
0.549426
0.624415
0.698879
0.771141
0.837605
0.891059
0.920755
0.941437
0.0379781
0.113988
0.190158
0.26659
0.343377
0.420597
0.498303
0.576497
0.655085
0.733785
0.811958
0.888358
0.960906
1.02735
1.08792
0.0398495
0.119589
0.199451
0.279513
0.359854
0.440549
0.521682
0.603354
0.685727
0.7691
0.854079
0.941926
1.03509
1.13814
1.26332
0.0416975
0.125121
0.208629
0.292279
0.376131
0.460253
0.544746
0.629786
0.71573
0.803345
0.894277
0.991927
1.10249
1.2337
1.37574
0.0435306
0.130608
0.217734
0.304941
0.392265
0.479755
0.567493
0.655652
0.744628
0.835337
0.929888
1.03308
1.15566
1.32188
1.59305
0.0453572
0.136076
0.226806
0.317556
0.40833
0.499138
0.590005
0.681011
0.772379
0.864715
0.95958
1.06092
1.17859
1.33733
1.60213
0.0471856
0.14155
0.235891
0.330189
0.424417
0.518533
0.612481
0.706175
0.799512
0.892391
0.984858
1.07756
1.1731
1.27927
1.41114
0.0490236
0.147053
0.245029
0.342906
0.440625
0.5381
0.635189
0.731646
0.827013
0.920404
1.01005
1.09238
1.16028
1.2035
1.24443
0.0508784
0.152609
0.254259
0.355766
0.457048
0.557987
0.658394
0.757929
0.855934
0.951064
1.04042
1.11735
1.16466
1.12946
0.807273
0.0527559
0.158235
0.263614
0.368817
0.473753
0.578297
0.682263
0.785329
0.886898
0.985775
1.0795
1.16302
1.22637
1.25484
1.26764
0.0546606
0.163944
0.273113
0.382087
0.490773
0.599062
0.706814
0.813826
0.919778
1.0241
1.12575
1.22284
1.31237
1.39123
1.46005
0.0565958
0.169746
0.282773
0.39559
0.508111
0.620252
0.731935
0.843116
0.953837
1.06433
1.17523
1.28804
1.40586
1.53469
1.69064
0.0585641
0.175648
0.2926
0.409331
0.525758
0.64181
0.75746
0.872784
0.988106
1.1043
1.22343
1.34988
1.4918
1.65944
1.83955
0.0605674
0.181655
0.302603
0.423316
0.543706
0.663698
0.783267
0.902509
1.02182
1.14229
1.26663
1.4011
1.55995
1.77566
2.13039
0.0626076
0.187774
0.312791
0.437558
0.561971
0.68593
0.809356
0.932242
1.05478
1.17765
1.30285
1.43551
1.58869
1.79548
2.14278
0.0646862
0.194008
0.323175
0.452077
0.580592
0.70858
0.835873
0.962271
1.08754
1.21145
1.33396
1.4558
1.58029
1.71785
1.88879
0.0668042
0.200362
0.333764
0.466895
0.599619
0.731759
0.863063
0.993134
1.12129
1.24627
1.36562
1.47438
1.56286
1.61716
1.66684
0.0689616
0.206836
0.344563
0.482028
0.619092
0.755567
0.89116
1.02538
1.15729
1.28505
1.4047
1.50716
1.56921
1.5198
1.08449
0.0711565
0.213427
0.355564
0.497468
0.639015
0.780033
0.920263
1.05926
1.19622
1.32951
1.45578
1.56813
1.65302
1.69051
1.70611
0.0733852
0.220121
0.366748
0.513187
0.659342
0.805091
0.950269
1.09462
1.23774
1.37886
1.51658
1.6483
1.76979
1.87654
1.96801
0.0756423
0.226901
0.378083
0.529132
0.679988
0.830593
0.980896
1.13089
1.28068
1.43062
1.58161
1.73567
1.89689
2.07327
2.28663
0.0779208
0.233748
0.38953
0.545238
0.700847
0.856347
1.01179
1.16735
1.32356
1.48168
1.64456
1.81818
2.01352
2.24442
2.49206
0.0802132
0.240636
0.401048
0.561442
0.721816
0.882187
1.04264
1.20341
1.36516
1.52948
1.70012
1.88568
2.10555
2.40404
2.89346
0.0825116
0.247543
0.412598
0.577688
0.742822
0.908015
1.07331
1.23884
1.40502
1.57293
1.74538
1.92948
2.14303
2.43119
2.91215
0.084808
0.254445
0.424141
0.593929
0.763822
0.933812
1.10386
1.27387
1.44371
1.61326
1.78262
1.95292
2.12877
2.32457
2.56819
0.0870933
0.261315
0.43564
0.610122
0.784787
0.959612
1.13447
1.30905
1.48265
1.65377
1.81928
1.97261
2.10071
2.18484
2.2653
0.0893574
0.268125
0.447048
0.626213
0.805675
0.985427
1.16533
1.34496
1.52334
1.69821
1.86444
2.00993
2.10322
2.04776
1.46946
0.0915878
0.274837
0.458304
0.642122
0.826395
1.01118
1.1964
1.38178
1.5665
1.74868
1.92407
2.08359
2.20908
2.27385
2.31298
0.0937703
0.281408
0.469335
0.657738
0.846793
1.03665
1.22742
1.4191
1.61147
1.80388
1.99478
2.18097
2.35714
2.51784
2.6639
0.0958886
0.287787
0.48005
0.672924
0.866663
1.06153
1.25784
1.45596
1.65644
1.86017
2.06879
2.28541
2.51601
2.77207
3.08387
0.0979257
0.293922
0.490357
0.687533
0.885775
1.08545
1.28704
1.49123
1.69919
1.9131
2.13728
2.38023
2.65724
2.98769
3.34898
0.0998649
0.299762
0.500164
0.701422
0.903916
1.10808
1.31448
1.52393
1.73784
1.95891
2.19278
2.45149
2.76141
3.18199
3.86185
0.101691
0.305259
0.509391
0.714474
0.920922
1.12919
1.33983
1.55356
1.77154
1.99588
2.23107
2.48726
2.7888
3.19632
3.86896
0.10339
0.310374
0.51797
0.726598
0.936689
1.14869
1.36306
1.58028
1.80084
2.02536
2.25482
2.49164
2.74263
3.02662
3.37519
0.104951
0.31507
0.525847
0.737725
0.951155
1.16657
1.38435
1.6047
1.82743
2.05142
2.27352
2.48624
2.67359
2.81214
2.95511
0.106362
0.319318
0.53297
0.747793
0.964264
1.18284
1.40389
1.62751
1.85317
2.07881
2.29879
2.49853
2.63848
2.59466
1.88249
0.107616
0.323089
0.539293
0.756734
0.975935
1.19742
1.42166
1.64892
1.87894
2.11015
2.33816
2.55241
2.731
2.84138
2.92991
0.108703
0.326358
0.544768
0.764468
0.986039
1.21011
1.43736
1.66845
1.90389
2.14375
2.3871
2.63114
2.87092
3.10333
3.34086
0.10962
0.329109
0.549357
0.770918
0.994425
1.22063
1.45043
1.68498
1.92579
2.17494
2.43559
2.71291
3.01599
3.36177
3.78958
0.110367
0.331339
0.553043
0.776031
1.00096
1.22866
1.46022
1.69719
1.94191
2.19817
2.47253
2.77683
3.13144
3.56331
4.05716
0.11095
0.333066
0.555847
0.779808
1.00559
1.23402
1.46628
1.70405
1.95005
2.20883
2.48871
2.80586
3.19326
3.72187
4.5611
0.111386
0.334336
0.557838
0.782335
1.00839
1.23676
1.46851
1.70522
1.94933
2.20485
2.47904
2.78616
3.15705
3.66478
4.50249
0.1117
0.335225
0.559146
0.783791
1.00959
1.23716
1.46733
1.70128
1.94069
2.18792
2.44652
2.72222
3.02582
3.3786
3.79885
0.111928
0.335845
0.559957
0.784451
1.00959
1.23577
1.46352
1.69356
1.92662
2.16312
2.40215
2.63896
2.86047
3.0456
3.25651
0.112115
0.33633
0.560511
0.784669
1.00888
1.23329
1.45815
1.68375
1.91017
2.13659
2.35932
2.56638
2.72039
2.69473
1.97686
0.112314
0.336843
0.561083
0.78486
1.00803
1.23051
1.45229
1.67339
1.89373
2.11261
2.32741
2.53066
2.70508
2.82458
2.94435
0.112581
0.337559
0.561982
0.785476
1.00767
1.22823
1.4469
1.66356
1.8783
2.09146
2.30352
2.51501
2.7279
2.95429
3.24847
0.112977
0.338662
0.563529
0.786998
1.00846
1.22728
1.44292
1.65506
1.86398
2.07109
2.28002
2.49841
2.74136
3.03692
3.43272
0.11356
0.340334
0.566048
0.789921
1.01107
1.22854
1.44136
1.64881
1.85091
2.04947
2.24994
2.46478
2.71829
3.04997
3.49566
0.114382
0.342742
0.569848
0.794734
1.01625
1.23303
1.44354
1.64627
1.84031
2.02651
2.20989
2.40431
2.64092
2.98384
3.55934
0.115486
0.346021
0.575189
0.801886
1.02471
1.24187
1.45111
1.64978
1.83516
2.00549
2.16218
2.31455
2.48973
2.75621
3.30417
0.116891
0.350247
0.582246
0.811724
1.03711
1.25621
1.46603
1.66249
1.84045
1.99395
2.11746
2.20896
2.27514
2.3331
2.35662
0.118593
0.355414
0.591049
0.824398
1.05385
1.277
1.4902
1.68805
1.86272
2.00321
2.09497
2.12095
2.06626
1.93391
1.81356
0.120548
0.3614
0.601432
0.839768
1.07497
1.30467
1.525
1.72969
1.90872
2.0463
2.11817
2.08895
1.91132
1.52639
0.820784
0.122669
0.367953
0.612985
0.857298
1.09989
1.33884
1.57065
1.78913
1.98349
2.13501
2.21157
2.16001
1.90033
1.34155
0.47797
0.124828
0.374673
0.625028
0.876008
1.12732
1.37794
1.62552
1.86529
2.088
2.27577
2.39394
2.37562
2.09706
1.36836
0.132649
0.126851
0.381033
0.636625
0.894467
1.15521
1.41913
1.68578
1.95329
2.21678
2.46488
2.67113
2.77195
2.60636
1.74721
-0.953218
0.12854
0.386406
0.646645
0.910893
1.18086
1.45839
1.74542
2.04405
2.35624
2.68306
3.02158
3.3533
3.59722
3.40463
1.20399
0.12968
0.390122
0.653867
0.92332
1.20124
1.49099
1.79698
2.12537
2.48556
2.89317
3.37682
3.99569
4.89104
6.4561
9.94788
9.75863
6.13261
4.55021
3.6676
3.07184
2.61547
2.23691
1.90648
1.60801
1.33181
1.07158
0.822869
0.582346
0.347306
0.115425
0.591184
2.95241
3.19974
2.9909
2.69164
2.38577
2.09179
1.81232
1.54605
1.29087
1.04467
0.805535
0.571706
0.341571
0.113617
-1.61885
1.24026
2.16596
2.3769
2.31601
2.1478
1.93661
1.70899
1.47637
1.24366
1.01284
0.784497
0.558485
0.334314
0.111306
-0.286486
0.870676
1.62846
1.95162
2.01489
1.93971
1.79284
1.60914
1.40673
1.19511
0.97928
0.76182
0.543973
0.326242
0.108718
-0.155617
0.778366
1.39274
1.7068
1.80991
1.78141
1.67466
1.52227
1.34346
1.14946
0.946828
0.739392
0.529367
0.318019
0.106064
0.122172
0.907956
1.36554
1.60845
1.69634
1.67744
1.58817
1.45374
1.29072
1.10978
0.917693
0.718747
0.515671
0.310211
0.103529
1.03562
1.26544
1.48739
1.61776
1.65693
1.62234
1.53305
1.40504
1.25042
1.07783
0.893304
0.700958
0.50362
0.303247
0.101252
1.5334
1.62837
1.67286
1.69041
1.66873
1.60524
1.50479
1.37482
1.22257
1.05417
0.874332
0.686628
0.493672
0.297407
0.0993283
2.40054
2.02635
1.87702
1.7903
1.70958
1.61379
1.49704
1.36004
1.20595
1.03842
0.860818
0.675938
0.486017
0.292826
0.0978047
2.67207
2.26818
2.03772
1.88602
1.76089
1.63689
1.50336
1.35714
1.19865
1.02967
0.852354
0.668747
0.48063
0.289514
0.0966892
2.74576
2.38958
2.14373
1.9633
1.81141
1.66663
1.51847
1.36277
1.19863
1.02671
0.848259
0.664687
0.477326
0.287388
0.0959583
2.75286
2.43437
2.20432
2.02076
1.85699
1.69871
1.53883
1.37425
1.20401
1.02827
0.847724
0.663257
0.475813
0.286297