/*--------------------------------*- C++ -*----------------------------------*\
| =========                 |                                                 |
| \\      /  F ield         | OpenFOAM: The Open Source CFD Toolbox           |
|  \\    /   O peration     | Version:  5.x                                   |
|   \\  /    A nd           | Web:      www.OpenFOAM.org                      |
|    \\/     M anipulation  |                                                 |
\*---------------------------------------------------------------------------*/
FoamFile
{
    version     2.0;
    format      ascii;
    class       volScalarField;
    location    "3.3";
    object      T;
}
// * * * * * * * * * * * * * * * * * * * * * * * * * * * * * * * * * * * * * //

dimensions      [0 0 0 1 0 0 0];

internalField   nonuniform List<scalar> 
6300
(
322.759
322.278
321.797
321.317
320.838
320.359
319.882
319.407
318.933
318.461
317.991
317.523
317.058
316.596
316.137
322.759
322.278
321.797
321.316
320.837
320.358
319.881
319.405
318.931
318.458
317.988
317.521
317.056
316.593
316.134
322.759
322.277
321.796
321.315
320.835
320.356
319.878
319.401
318.927
318.454
317.984
317.516
317.05
316.587
316.128
322.759
322.276
321.794
321.312
320.832
320.352
319.873
319.396
318.921
318.448
317.976
317.508
317.042
316.579
316.119
322.758
322.275
321.792
321.309
320.828
320.347
319.867
319.389
318.913
318.439
317.967
317.497
317.031
316.567
316.106
322.758
322.273
321.789
321.305
320.822
320.34
319.86
319.381
318.903
318.428
317.955
317.484
317.017
316.552
316.091
322.757
322.271
321.786
321.301
320.816
320.333
319.851
319.37
318.891
318.414
317.94
317.468
316.999
316.534
316.072
322.756
322.269
321.782
321.295
320.809
320.324
319.84
319.358
318.877
318.398
317.922
317.449
316.979
316.513
316.05
322.755
322.266
321.778
321.289
320.801
320.314
319.828
319.344
318.861
318.38
317.902
317.426
316.955
316.487
316.024
322.755
322.264
321.773
321.283
320.793
320.304
319.815
319.328
318.843
318.359
317.878
317.4
316.926
316.457
315.994
322.754
322.261
321.768
321.275
320.783
320.292
319.801
319.311
318.822
318.336
317.851
317.37
316.893
316.422
315.958
322.752
322.257
321.763
321.268
320.773
320.279
319.786
319.293
318.801
318.31
317.821
317.335
316.854
316.379
315.914
322.751
322.254
321.757
321.26
320.763
320.266
319.77
319.273
318.777
318.282
317.788
317.296
316.808
316.327
315.859
322.75
322.251
321.752
321.252
320.753
320.253
319.753
319.253
318.753
318.253
317.753
317.253
316.755
316.263
315.786
322.749
322.248
321.746
321.244
320.742
320.24
319.737
319.234
318.729
318.224
317.717
317.208
316.696
316.183
315.678
315.718
315.34
314.964
314.591
314.22
313.851
313.485
313.122
312.762
312.404
312.05
311.699
311.351
311.007
310.667
310.33
309.998
309.669
309.344
309.022
308.705
308.391
308.081
307.775
307.472
307.172
306.875
306.582
306.291
306.003
305.717
305.433
305.152
304.873
304.595
304.319
304.044
303.771
303.499
303.229
302.959
302.69
302.423
302.156
301.89
301.624
301.359
301.095
300.831
300.568
300.305
300.042
299.779
299.517
299.254
298.991
298.727
298.463
298.198
297.933
297.666
297.399
297.131
296.861
296.59
296.318
296.044
295.769
295.493
295.214
294.934
294.653
294.369
294.084
293.797
293.508
293.217
292.924
292.629
292.332
292.032
291.731
291.427
291.121
290.813
290.502
290.189
289.874
289.556
289.236
315.715
315.337
314.961
314.587
314.216
313.847
313.481
313.118
312.757
312.4
312.045
311.694
311.346
311.002
310.662
310.325
309.992
309.663
309.338
309.017
308.699
308.386
308.076
307.77
307.467
307.167
306.871
306.577
306.287
305.999
305.713
305.43
305.149
304.87
304.592
304.317
304.042
303.769
303.498
303.227
302.958
302.689
302.421
302.155
301.889
301.623
301.358
301.094
300.831
300.567
300.304
300.042
299.779
299.517
299.254
298.991
298.728
298.464
298.199
297.934
297.668
297.4
297.132
296.863
296.592
296.32
296.046
295.771
295.495
295.217
294.937
294.655
294.372
294.087
293.8
293.511
293.22
292.927
292.632
292.335
292.036
291.734
291.43
291.124
290.816
290.505
290.192
289.877
289.559
289.239
315.709
315.331
314.954
314.581
314.209
313.84
313.473
313.109
312.748
312.39
312.036
311.684
311.336
310.991
310.651
310.314
309.981
309.652
309.327
309.006
308.688
308.375
308.065
307.76
307.457
307.158
306.862
306.569
306.279
305.992
305.707
305.424
305.143
304.865
304.588
304.312
304.038
303.766
303.494
303.224
302.955
302.686
302.419
302.152
301.886
301.621
301.357
301.093
300.829
300.566
300.304
300.041
299.779
299.517
299.254
298.992
298.729
298.465
298.201
297.936
297.67
297.403
297.135
296.866
296.596
296.324
296.05
295.776
295.499
295.221
294.942
294.66
294.377
294.092
293.805
293.516
293.225
292.933
292.638
292.341
292.042
291.74
291.437
291.131
290.823
290.512
290.199
289.884
289.566
289.246
315.7
315.321
314.944
314.57
314.198
313.829
313.462
313.097
312.735
312.377
312.021
311.669
311.32
310.975
310.634
310.297
309.964
309.635
309.31
308.989
308.672
308.359
308.05
307.744
307.443
307.144
306.849
306.557
306.268
305.981
305.697
305.415
305.135
304.857
304.58
304.305
304.032
303.76
303.489
303.219
302.95
302.682
302.415
302.149
301.883
301.618
301.354
301.09
300.827
300.564
300.302
300.04
299.779
299.517
299.255
298.993
298.731
298.468
298.204
297.94
297.674
297.408
297.14
296.871
296.601
296.329
296.056
295.782
295.506
295.228
294.949
294.667
294.384
294.1
293.813
293.524
293.234
292.941
292.646
292.35
292.051
291.75
291.446
291.14
290.832
290.522
290.209
289.894
289.576
289.256
315.687
315.308
314.931
314.556
314.184
313.814
313.446
313.081
312.718
312.358
312.002
311.649
311.299
310.954
310.612
310.275
309.941
309.612
309.287
308.966
308.65
308.337
308.029
307.724
307.423
307.126
306.831
306.54
306.252
305.967
305.683
305.402
305.123
304.846
304.571
304.297
304.024
303.752
303.482
303.213
302.944
302.677
302.41
302.144
301.878
301.614
301.35
301.086
300.824
300.562
300.3
300.039
299.778
299.517
299.256
298.995
298.733
298.471
298.208
297.944
297.679
297.413
297.146
296.878
296.608
296.337
296.064
295.79
295.515
295.237
294.958
294.677
294.394
294.11
293.823
293.535
293.245
292.953
292.658
292.362
292.063
291.762
291.459
291.153
290.846
290.535
290.223
289.907
289.59
289.269
315.671
315.292
314.915
314.54
314.167
313.796
313.427
313.06
312.696
312.335
311.978
311.623
311.273
310.926
310.584
310.246
309.912
309.583
309.258
308.938
308.621
308.309
308.002
307.698
307.398
307.102
306.809
306.52
306.233
305.949
305.667
305.387
305.109
304.833
304.559
304.286
304.014
303.743
303.474
303.205
302.937
302.67
302.404
302.138
301.873
301.608
301.345
301.082
300.82
300.558
300.298
300.037
299.777
299.517
299.257
298.997
298.736
298.475
298.213
297.95
297.686
297.421
297.154
296.887
296.617
296.347
296.075
295.801
295.526
295.249
294.97
294.689
294.407
294.123
293.837
293.549
293.259
292.967
292.673
292.377
292.078
291.778
291.475
291.17
290.862
290.552
290.24
289.925
289.607
289.286
315.652
315.273
314.895
314.52
314.146
313.774
313.404
313.036
312.671
312.308
311.948
311.592
311.24
310.893
310.55
310.211
309.877
309.548
309.223
308.903
308.587
308.276
307.969
307.667
307.368
307.074
306.783
306.495
306.21
305.927
305.647
305.369
305.093
304.818
304.545
304.273
304.002
303.732
303.464
303.196
302.929
302.662
302.396
302.131
301.866
301.602
301.339
301.076
300.815
300.554
300.294
300.035
299.776
299.517
299.258
299
298.74
298.48
298.219
297.957
297.694
297.43
297.164
296.897
296.628
296.358
296.087
295.814
295.539
295.262
294.984
294.704
294.422
294.138
293.852
293.565
293.275
292.984
292.69
292.395
292.097
291.796
291.494
291.189
290.882
290.573
290.261
289.946
289.628
289.307
315.63
315.25
314.873
314.497
314.123
313.75
313.379
313.009
312.641
312.276
311.914
311.556
311.202
310.853
310.509
310.17
309.835
309.506
309.181
308.861
308.546
308.236
307.93
307.63
307.333
307.04
306.751
306.465
306.182
305.902
305.624
305.348
305.074
304.801
304.529
304.258
303.989
303.72
303.452
303.185
302.919
302.653
302.388
302.123
301.858
301.594
301.331
301.069
300.808
300.548
300.29
300.032
299.774
299.517
299.26
299.003
298.745
298.486
298.227
297.966
297.704
297.441
297.176
296.909
296.641
296.372
296.101
295.829
295.555
295.279
295.001
294.721
294.439
294.156
293.871
293.584
293.295
293.004
292.711
292.416
292.118
291.818
291.516
291.212
290.906
290.597
290.286
289.971
289.653
289.333
315.604
315.225
314.848
314.472
314.098
313.724
313.351
312.978
312.607
312.238
311.873
311.512
311.156
310.806
310.461
310.122
309.787
309.457
309.132
308.812
308.497
308.188
307.885
307.586
307.292
307.002
306.715
306.432
306.151
305.874
305.599
305.325
305.053
304.782
304.512
304.242
303.974
303.706
303.44
303.174
302.909
302.644
302.379
302.114
301.849
301.585
301.322
301.06
300.8
300.541
300.284
300.028
299.772
299.517
299.262
299.006
298.75
298.494
298.236
297.977
297.716
297.454
297.189
296.923
296.656
296.388
296.118
295.846
295.573
295.298
295.02
294.74
294.459
294.176
293.891
293.605
293.317
293.027
292.735
292.44
292.142
291.843
291.541
291.238
290.933
290.625
290.315
290.001
289.684
289.363
315.574
315.196
314.82
314.446
314.072
313.698
313.322
312.946
312.57
312.196
311.826
311.462
311.103
310.751
310.406
310.066
309.731
309.401
309.075
308.755
308.441
308.133
307.832
307.536
307.245
306.958
306.674
306.394
306.116
305.842
305.57
305.3
305.031
304.762
304.493
304.225
303.957
303.691
303.426
303.162
302.898
302.634
302.37
302.105
301.839
301.574
301.31
301.048
300.789
300.532
300.277
300.023
299.77
299.517
299.263
299.01
298.757
298.503
298.247
297.99
297.731
297.469
297.205
296.939
296.673
296.405
296.137
295.867
295.594
295.32
295.042
294.762
294.481
294.198
293.914
293.63
293.343
293.054
292.762
292.467
292.17
291.87
291.569
291.267
290.963
290.657
290.348
290.036
289.719
289.398
315.539
315.163
314.791
314.42
314.048
313.673
313.295
312.913
312.53
312.149
311.772
311.402
311.04
310.688
310.343
310.004
309.669
309.338
309.011
308.69
308.376
308.07
307.771
307.48
307.193
306.91
306.629
306.351
306.077
305.806
305.539
305.273
305.008
304.741
304.474
304.206
303.939
303.673
303.41
303.149
302.888
302.626
302.362
302.096
301.828
301.561
301.296
301.033
300.775
300.52
300.268
300.018
299.767
299.516
299.265
299.014
298.764
298.513
298.261
298.007
297.749
297.487
297.223
296.957
296.69
296.424
296.158
295.89
295.619
295.345
295.067
294.787
294.504
294.221
293.939
293.656
293.372
293.085
292.794
292.499
292.2
291.899
291.598
291.297
290.996
290.693
290.387
290.076
289.761
289.44
315.498
315.126
314.759
314.394
314.027
313.653
313.271
312.882
312.488
312.094
311.707
311.329
310.965
310.613
310.271
309.936
309.601
309.268
308.938
308.614
308.299
307.994
307.701
307.416
307.136
306.857
306.579
306.303
306.032
305.766
305.506
305.247
304.986
304.722
304.455
304.187
303.918
303.653
303.392
303.135
302.879
302.62
302.357
302.089
301.818
301.545
301.276
301.012
300.755
300.503
300.257
300.012
299.765
299.516
299.266
299.017
298.77
298.525
298.279
298.028
297.772
297.509
297.243
296.974
296.707
296.442
296.18
295.917
295.65
295.376
295.097
294.813
294.528
294.244
293.963
293.685
293.405
293.121
292.831
292.534
292.233
291.929
291.627
291.328
291.032
290.734
290.432
290.124
289.809
289.489
315.447
315.084
314.723
314.372
314.017
313.644
313.259
312.856
312.447
312.031
311.628
311.239
310.872
310.522
310.191
309.865
309.532
309.196
308.855
308.525
308.206
307.905
307.617
307.344
307.077
306.803
306.527
306.249
305.98
305.719
305.469
305.223
304.968
304.708
304.439
304.167
303.892
303.626
303.368
303.12
302.875
302.62
302.359
302.086
301.808
301.525
301.25
300.982
300.726
300.48
300.244
300.009
299.766
299.518
299.265
299.017
298.774
298.539
298.304
298.058
297.803
297.537
297.266
296.99
296.72
296.457
296.204
295.951
295.688
295.416
295.132
294.843
294.549
294.262
293.983
293.714
293.446
293.166
292.878
292.577
292.27
291.957
291.652
291.354
291.068
290.782
290.486
290.181
289.866
289.548
315.38
315.036
314.674
314.354
314.031
313.654
313.273
312.84
312.415
311.947
311.531
311.115
310.754
310.403
310.103
309.807
309.467
309.13
308.756
308.421
308.087
307.795
307.511
307.267
307.026
306.751
306.48
306.181
305.915
305.654
305.43
305.209
304.958
304.707
304.426
304.152
303.852
303.587
303.327
303.104
302.883
302.631
302.376
302.089
301.806
301.494
301.214
300.932
300.684
300.441
300.229
300.017
299.773
299.528
299.255
299.01
298.766
298.554
298.343
298.099
297.852
297.572
297.297
296.994
296.725
296.458
296.228
296
295.737
295.473
295.174
294.88
294.558
294.271
293.988
293.744
293.502
293.224
292.943
292.627
292.315
291.972
291.667
291.364
291.104
290.846
290.55
290.254
289.926
289.62
315.276
315.017
314.562
314.343
314.123
313.67
313.36
312.813
312.446
311.79
311.431
310.912
310.623
310.211
310.01
309.81
309.399
309.115
308.601
308.318
307.906
307.675
307.346
307.185
307.024
306.696
306.47
306.065
305.845
305.535
305.385
305.24
304.948
304.75
304.404
304.172
303.764
303.543
303.233
303.083
302.937
302.643
302.441
302.087
301.847
301.417
301.179
300.833
300.637
300.355
300.215
300.073
299.781
299.577
299.206
299.002
298.711
298.569
298.428
298.144
297.947
297.601
297.367
296.951
296.725
296.404
296.25
296.098
295.79
295.579
295.208
294.958
294.515
294.275
293.935
293.771
293.61
293.285
293.061
292.669
292.404
291.933
291.677
291.313
291.138
290.965
290.613
290.374
289.954
289.72
288.881
288.491
288.097
287.701
287.302
286.9
286.496
286.089
285.681
285.272
284.86
284.448
284.035
283.621
283.207
288.884
288.494
288.1
287.704
287.304
286.902
286.498
286.091
285.683
285.273
284.861
284.449
284.036
283.622
283.207
288.891
288.5
288.106
287.709
287.309
286.907
286.502
286.095
285.686
285.276
284.864
284.451
284.037
283.622
283.207
288.9
288.509
288.115
287.718
287.317
286.914
286.508
286.101
285.691
285.28
284.867
284.453
284.039
283.623
283.208
288.914
288.522
288.127
287.729
287.328
286.923
286.517
286.108
285.697
285.285
284.871
284.456
284.041
283.625
283.208
288.93
288.538
288.142
287.743
287.341
286.935
286.527
286.117
285.705
285.291
284.877
284.461
284.044
283.627
283.209
288.951
288.558
288.161
287.761
287.357
286.95
286.54
286.128
285.715
285.299
284.883
284.466
284.047
283.629
283.21
288.976
288.582
288.184
287.781
287.375
286.966
286.555
286.141
285.726
285.309
284.89
284.471
284.051
283.631
283.21
289.005
288.61
288.21
287.805
287.397
286.986
286.572
286.156
285.738
285.319
284.899
284.478
284.056
283.634
283.211
289.04
288.643
288.241
287.833
287.422
287.008
286.591
286.172
285.752
285.33
284.908
284.484
284.061
283.637
283.212
289.081
288.682
288.276
287.865
287.45
287.032
286.612
286.19
285.767
285.342
284.918
284.492
284.066
283.64
283.213
289.13
288.727
288.317
287.901
287.481
287.058
286.634
286.209
285.782
285.355
284.928
284.5
284.072
283.643
283.214
289.188
288.781
288.363
287.94
287.514
287.087
286.658
286.229
285.799
285.369
284.939
284.508
284.077
283.646
283.215
289.262
288.845
288.415
287.983
287.549
287.116
286.682
286.249
285.816
285.383
284.95
284.516
284.083
283.65
283.217
289.363
288.919
288.471
288.026
287.584
287.144
286.706
286.269
285.833
285.397
284.961
284.525
284.089
283.653
283.218
322.748
322.245
321.741
321.237
320.733
320.229
319.723
319.217
318.709
318.199
317.686
317.169
316.644
316.102
315.517
322.747
322.242
321.737
321.231
320.725
320.219
319.711
319.202
318.691
318.178
317.661
317.139
316.608
316.06
315.477
322.747
322.24
321.733
321.226
320.718
320.209
319.7
319.188
318.675
318.16
317.64
317.116
316.584
316.041
315.488
322.746
322.238
321.729
321.22
320.711
320.201
319.689
319.176
318.661
318.144
317.623
317.098
316.567
316.029
315.488
322.745
322.236
321.726
321.216
320.705
320.193
319.68
319.165
318.649
318.13
317.609
317.083
316.554
316.021
315.486
322.745
322.234
321.723
321.211
320.699
320.186
319.672
319.156
318.639
318.119
317.597
317.072
316.544
316.014
315.483
322.744
322.232
321.72
321.207
320.694
320.18
319.664
319.148
318.629
318.109
317.587
317.062
316.536
316.007
315.479
322.744
322.231
321.717
321.204
320.689
320.174
319.658
319.141
318.622
318.101
317.579
317.054
316.528
316.001
315.472
322.743
322.229
321.715
321.201
320.685
320.17
319.653
319.135
318.615
318.094
317.572
317.048
316.522
315.995
315.468
322.743
322.228
321.713
321.198
320.682
320.166
319.648
319.129
318.61
318.089
317.566
317.042
316.516
315.989
315.46
322.742
322.227
321.712
321.196
320.679
320.162
319.644
319.125
318.605
318.084
317.561
317.037
316.512
315.985
315.457
322.742
322.226
321.71
321.194
320.677
320.159
319.641
319.122
318.601
318.08
317.557
317.034
316.508
315.981
315.453
322.742
322.226
321.709
321.192
320.675
320.157
319.638
319.119
318.599
318.077
317.555
317.031
316.506
315.979
315.452
322.742
322.225
321.708
321.191
320.673
320.155
319.636
319.117
318.596
318.075
317.553
317.029
316.504
315.978
315.451
322.742
322.225
321.708
321.19
320.672
320.154
319.635
319.115
318.595
318.074
317.551
317.028
316.504
315.978
315.451
322.741
322.224
321.707
321.189
320.672
320.153
319.634
319.115
318.594
318.073
317.551
317.028
316.504
315.978
315.452
322.741
322.224
321.707
321.189
320.671
320.153
319.634
319.114
318.594
318.073
317.551
317.028
316.505
315.98
315.454
322.741
322.224
321.707
321.189
320.671
320.153
319.634
319.114
318.594
318.073
317.552
317.029
316.506
315.982
315.457
322.741
322.224
321.707
321.189
320.671
320.153
319.634
319.115
318.595
318.074
317.553
317.031
316.508
315.985
315.462
322.741
322.224
321.707
321.189
320.672
320.153
319.635
319.116
318.596
318.076
317.555
317.033
316.511
315.988
315.465
322.741
322.224
321.707
321.19
320.672
320.154
319.636
319.117
318.598
318.078
317.557
317.036
316.514
315.992
315.47
322.742
322.225
321.708
321.191
320.673
320.155
319.637
319.119
318.6
318.08
317.56
317.039
316.518
315.996
315.473
322.742
322.225
321.708
321.191
320.674
320.157
319.639
319.121
318.602
318.083
317.563
317.043
316.522
316
315.476
322.742
322.225
321.709
321.192
320.676
320.158
319.641
319.123
318.605
318.086
317.567
317.047
316.526
316.005
315.483
322.742
322.226
321.71
321.194
320.677
320.16
319.643
319.126
318.608
318.09
317.571
317.052
316.532
316.011
315.488
322.742
322.227
321.711
321.195
320.679
320.162
319.646
319.129
318.612
318.094
317.576
317.057
316.537
316.018
315.497
322.742
322.227
321.712
321.196
320.681
320.165
319.649
319.132
318.615
318.098
317.58
317.062
316.544
316.025
315.504
322.743
322.228
321.713
321.198
320.683
320.167
319.652
319.136
318.619
318.103
317.586
317.068
316.551
316.033
315.516
322.743
322.229
321.714
321.2
320.685
320.17
319.655
319.139
318.624
318.108
317.591
317.074
316.557
316.04
315.523
322.743
322.229
321.715
321.201
320.687
320.173
319.658
319.143
318.628
318.113
317.597
317.081
316.564
316.048
315.533
322.743
322.23
321.717
321.203
320.69
320.176
319.662
319.148
318.633
318.118
317.603
317.087
316.571
316.055
315.538
322.744
322.231
321.718
321.205
320.692
320.179
319.666
319.152
318.638
318.124
317.609
317.094
316.578
316.062
315.543
322.744
322.232
321.72
321.208
320.695
320.183
319.67
319.157
318.644
318.13
317.616
317.101
316.586
316.07
315.554
322.744
322.233
321.721
321.21
320.698
320.186
319.674
319.162
318.649
318.136
317.623
317.109
316.594
316.079
315.561
322.745
322.234
321.723
321.212
320.701
320.19
319.679
319.167
318.655
318.143
317.63
317.117
316.603
316.089
315.575
322.745
322.235
321.725
321.215
320.704
320.194
319.683
319.172
318.661
318.149
317.638
317.125
316.613
316.099
315.584
322.745
322.236
321.727
321.217
320.708
320.198
319.688
319.178
318.667
318.157
317.645
317.134
316.623
316.111
315.601
322.746
322.237
321.729
321.22
320.711
320.202
319.693
319.184
318.674
318.164
317.654
317.143
316.632
316.122
315.611
322.746
322.238
321.731
321.223
320.715
320.207
319.698
319.19
318.681
318.171
317.662
317.152
316.642
316.132
315.625
322.747
322.24
321.733
321.226
320.719
320.211
319.704
319.196
318.688
318.179
317.67
317.161
316.652
316.142
315.632
322.747
322.241
321.735
321.229
320.722
320.216
319.709
319.202
318.695
318.187
317.679
317.171
316.661
316.151
315.638
322.747
322.242
321.737
321.232
320.726
320.221
319.715
319.209
318.702
318.196
317.688
317.181
316.672
316.163
315.653
322.748
322.244
321.739
321.235
320.731
320.226
319.721
319.216
318.71
318.204
317.698
317.191
316.683
316.174
315.663
322.748
322.245
321.742
321.238
320.735
320.231
319.727
319.223
318.718
318.213
317.708
317.202
316.696
316.188
315.681
322.749
322.247
321.744
321.242
320.739
320.237
319.734
319.23
318.727
318.223
317.718
317.214
316.708
316.202
315.693
322.749
322.248
321.747
321.246
320.744
320.242
319.74
319.238
318.735
318.232
317.729
317.225
316.722
316.218
315.716
322.75
322.25
321.75
321.249
320.749
320.248
319.747
319.246
318.744
318.242
317.74
317.237
316.735
316.232
315.729
322.75
322.251
321.752
321.253
320.754
320.254
319.754
319.254
318.754
318.253
317.751
317.25
316.748
316.246
315.748
322.751
322.253
321.755
321.257
320.759
320.26
319.762
319.262
318.763
318.263
317.763
317.262
316.761
316.259
315.757
322.752
322.255
321.758
321.261
320.764
320.267
319.769
319.271
318.773
318.274
317.775
317.275
316.774
316.272
315.766
322.752
322.257
321.761
321.265
320.769
320.273
319.777
319.28
318.783
318.285
317.787
317.288
316.788
316.287
315.785
322.753
322.259
321.764
321.27
320.775
320.28
319.785
319.289
318.793
318.297
317.8
317.302
316.804
316.303
315.799
322.753
322.26
321.767
321.274
320.781
320.287
319.793
319.299
318.804
318.309
317.813
317.317
316.82
316.322
315.823
322.754
322.262
321.771
321.279
320.787
320.294
319.802
319.309
318.816
318.322
317.827
317.333
316.837
316.34
315.84
322.755
322.264
321.774
321.284
320.793
320.302
319.811
319.319
318.827
318.335
317.842
317.349
316.855
316.362
315.872
322.756
322.267
321.778
321.288
320.799
320.309
319.82
319.329
318.839
318.348
317.857
317.365
316.873
316.381
315.889
322.756
322.269
321.781
321.293
320.806
320.317
319.829
319.34
318.851
318.362
317.872
317.381
316.89
316.4
315.914
322.757
322.271
321.785
321.299
320.812
320.325
319.839
319.351
318.864
318.376
317.887
317.398
316.908
316.417
315.927
322.758
322.273
321.789
321.304
320.819
320.334
319.848
319.363
318.877
318.39
317.903
317.415
316.926
316.435
315.939
322.759
322.276
321.792
321.309
320.826
320.342
319.859
319.374
318.89
318.405
317.919
317.432
316.945
316.455
315.965
322.759
322.278
321.796
321.315
320.833
320.351
319.869
319.386
318.903
318.42
317.936
317.451
316.965
316.477
315.983
322.76
322.28
321.8
321.32
320.84
320.36
319.879
319.399
318.917
318.436
317.953
317.47
316.987
316.501
316.016
322.761
322.283
321.805
321.326
320.848
320.369
319.89
319.411
318.932
318.452
317.971
317.491
317.009
316.526
316.039
322.762
322.285
321.809
321.332
320.855
320.378
319.901
319.424
318.946
318.468
317.99
317.511
317.033
316.555
316.081
322.763
322.288
321.813
321.338
320.863
320.388
319.913
319.437
318.961
318.485
318.009
317.532
317.056
316.58
316.104
322.763
322.29
321.817
321.344
320.871
320.398
319.924
319.45
318.976
318.502
318.028
317.553
317.078
316.605
316.137
322.764
322.293
321.822
321.35
320.879
320.407
319.936
319.464
318.992
318.519
318.047
317.573
317.1
316.627
316.153
322.765
322.296
321.826
321.357
320.887
320.417
319.947
319.477
319.007
318.537
318.066
317.594
317.122
316.648
316.168
322.766
322.299
321.831
321.363
320.895
320.427
319.959
319.491
319.023
318.554
318.086
317.616
317.146
316.674
316.202
322.767
322.301
321.835
321.369
320.904
320.438
319.971
319.505
319.039
318.572
318.106
317.638
317.17
316.7
316.224
322.768
322.304
321.84
321.376
320.912
320.448
319.984
319.519
319.055
318.591
318.126
317.661
317.196
316.73
316.265
322.769
322.307
321.845
321.382
320.92
320.458
319.996
319.534
319.071
318.609
318.147
317.685
317.222
316.759
316.292
322.77
322.31
321.849
321.389
320.929
320.468
320.008
319.548
319.088
318.628
318.168
317.708
317.249
316.792
316.341
322.771
322.312
321.854
321.395
320.937
320.479
320.02
319.562
319.104
318.646
318.188
317.731
317.275
316.82
316.367
322.772
322.315
321.859
321.402
320.945
320.489
320.032
319.576
319.12
318.664
318.208
317.753
317.3
316.848
316.404
322.773
322.318
321.863
321.409
320.954
320.499
320.045
319.59
319.136
318.682
318.228
317.775
317.323
316.871
316.421
322.774
322.321
321.868
321.415
320.962
320.509
320.057
319.604
319.152
318.7
318.248
317.796
317.345
316.893
316.437
322.775
322.324
321.873
321.422
320.971
320.52
320.069
319.618
319.167
318.717
318.267
317.817
317.368
316.918
316.47
322.775
322.326
321.877
321.428
320.979
320.53
320.081
319.632
319.183
318.734
318.286
317.838
317.39
316.942
316.491
322.776
322.329
321.882
321.435
320.987
320.54
320.093
319.646
319.199
318.752
318.305
317.859
317.413
316.969
316.527
322.777
322.332
321.887
321.441
320.996
320.55
320.105
319.659
319.214
318.769
318.324
317.879
317.436
316.993
316.549
322.778
322.335
321.891
321.448
321.004
320.561
320.117
319.673
319.229
318.785
318.342
317.899
317.457
317.019
316.587
322.779
322.338
321.896
321.455
321.013
320.571
320.129
319.687
319.245
318.802
318.36
317.918
317.477
317.039
316.605
322.78
322.341
321.901
321.461
321.022
320.582
320.141
319.701
319.26
318.819
318.377
317.936
317.495
317.057
316.626
322.781
322.344
321.906
321.468
321.031
320.592
320.154
319.715
319.276
318.835
318.395
317.953
317.512
317.071
316.635
322.782
322.347
321.911
321.475
321.04
320.603
320.167
319.73
319.292
318.853
318.412
317.971
317.527
317.083
316.64
322.783
322.35
321.916
321.483
321.049
320.615
320.18
319.745
319.309
318.871
318.431
317.989
317.543
317.094
316.643
322.784
322.353
321.922
321.49
321.058
320.626
320.194
319.761
319.327
318.891
318.452
318.01
317.562
317.106
316.642
322.785
322.356
321.927
321.498
321.068
320.638
320.208
319.777
319.346
318.912
318.476
318.035
317.587
317.123
316.627
322.786
322.359
321.932
321.505
321.078
320.651
320.223
319.795
319.366
318.935
318.503
318.066
317.622
317.162
316.662
289.506
288.992
288.519
288.063
287.614
287.169
286.727
286.287
285.848
285.409
284.971
284.532
284.095
283.657
283.219
289.539
289.028
288.551
288.09
287.638
287.19
286.745
286.303
285.861
285.42
284.979
284.539
284.099
283.66
283.22
289.516
289.041
288.572
288.112
287.659
287.209
286.762
286.317
285.873
285.43
284.988
284.546
284.104
283.662
283.221
289.512
289.049
288.587
288.13
287.677
287.226
286.778
286.331
285.885
285.441
284.996
284.552
284.109
283.665
283.222
289.511
289.055
288.599
288.145
287.692
287.241
286.792
286.344
285.897
285.45
285.004
284.559
284.113
283.668
283.223
289.509
289.062
288.61
288.158
287.707
287.256
286.806
286.356
285.908
285.46
285.012
284.565
284.117
283.67
283.223
289.514
289.07
288.622
288.172
287.721
287.269
286.819
286.368
285.918
285.469
285.02
284.571
284.122
283.673
283.224
289.527
289.083
288.635
288.185
287.734
287.283
286.831
286.38
285.929
285.478
285.027
284.576
284.126
283.675
283.225
289.539
289.098
288.65
288.2
287.748
287.296
286.844
286.391
285.939
285.486
285.034
284.582
284.13
283.678
283.226
289.567
289.117
288.667
288.215
287.763
287.31
286.856
286.402
285.949
285.495
285.041
284.588
284.134
283.68
283.227
289.584
289.135
288.684
288.231
287.778
287.323
286.869
286.414
285.959
285.504
285.048
284.593
284.138
283.683
283.228
289.612
289.156
288.702
288.248
287.793
287.337
286.881
286.425
285.969
285.512
285.055
284.599
284.142
283.685
283.228
289.629
289.176
288.721
288.265
287.809
287.352
286.894
286.437
285.979
285.521
285.062
284.604
284.146
283.688
283.229
289.657
289.197
288.74
288.282
287.825
287.366
286.907
286.448
285.989
285.529
285.07
284.61
284.15
283.69
283.23
289.67
289.215
288.758
288.3
287.841
287.381
286.921
286.46
285.999
285.538
285.077
284.615
284.154
283.692
283.231
289.685
289.235
288.778
288.318
287.858
287.396
286.934
286.472
286.01
285.547
285.084
284.621
284.158
283.695
283.232
289.717
289.259
288.799
288.338
287.875
287.412
286.948
286.484
286.02
285.556
285.091
284.627
284.162
283.697
283.232
289.74
289.283
288.821
288.358
287.893
287.428
286.962
286.497
286.031
285.565
285.098
284.632
284.166
283.7
283.233
289.783
289.312
288.845
288.378
287.911
287.444
286.976
286.509
286.041
285.574
285.106
284.638
284.17
283.702
283.234
289.807
289.338
288.868
288.398
287.929
287.46
286.991
286.521
286.052
285.583
285.113
284.643
284.174
283.704
283.235
289.843
289.365
288.891
288.419
287.947
287.476
287.005
286.534
286.063
285.592
285.12
284.649
284.178
283.707
283.236
289.863
289.388
288.913
288.439
287.965
287.492
287.019
286.546
286.073
285.601
285.128
284.655
284.182
283.709
283.236
289.893
289.411
288.934
288.458
287.983
287.508
287.033
286.559
286.084
285.609
285.135
284.661
284.186
283.712
283.237
289.907
289.431
288.954
288.477
288
287.524
287.047
286.571
286.095
285.618
285.142
284.666
284.19
283.714
283.238
289.922
289.45
288.974
288.496
288.017
287.539
287.061
286.583
286.105
285.627
285.149
284.672
284.194
283.716
283.239
289.953
289.474
288.994
288.515
288.035
287.555
287.075
286.595
286.116
285.636
285.157
284.677
284.198
283.719
283.24
289.974
289.497
289.016
288.534
288.052
287.57
287.088
286.607
286.126
285.645
285.164
284.683
284.202
283.721
283.24
290.012
289.523
289.037
288.553
288.069
287.585
287.102
286.619
286.136
285.653
285.171
284.688
284.206
283.723
283.241
290.033
289.546
289.058
288.572
288.086
287.6
287.115
286.631
286.146
285.662
285.178
284.694
284.21
283.726
283.242
290.065
289.569
289.079
288.59
288.102
287.615
287.128
286.642
286.156
285.67
285.185
284.699
284.213
283.728
283.243
290.082
289.589
289.098
288.607
288.118
287.629
287.141
286.653
286.166
285.678
285.191
284.704
284.217
283.73
283.243
290.107
289.609
289.116
288.624
288.133
287.643
287.154
286.664
286.175
285.687
285.198
284.709
284.221
283.732
283.244
290.118
289.625
289.132
288.64
288.148
287.657
287.166
286.675
286.185
285.694
285.204
284.714
284.224
283.735
283.245
290.13
289.641
289.149
288.656
288.163
287.67
287.178
286.686
286.194
285.702
285.211
284.719
284.228
283.737
283.246
290.154
289.66
289.166
288.672
288.177
287.683
287.19
286.696
286.203
285.71
285.217
284.724
284.232
283.739
283.246
290.171
289.678
289.183
288.687
288.192
287.696
287.201
286.707
286.212
285.718
285.223
284.729
284.235
283.741
283.247
290.2