/*--------------------------------*- C++ -*----------------------------------*\
| =========                 |                                                 |
| \\      /  F ield         | OpenFOAM: The Open Source CFD Toolbox           |
|  \\    /   O peration     | Version:  5.x                                   |
|   \\  /    A nd           | Web:      www.OpenFOAM.org                      |
|    \\/     M anipulation  |                                                 |
\*---------------------------------------------------------------------------*/
FoamFile
{
    version     2.0;
    format      ascii;
    class       volScalarField;
    location    "3.2";
    object      gradTy;
}
// * * * * * * * * * * * * * * * * * * * * * * * * * * * * * * * * * * * * * //

dimensions      [0 -1 0 1 0 0 0];

internalField   nonuniform List<scalar> 
6300
(
32276
32227.9
32179.8
32131.9
32084
32036.2
31988.5
31941
31893.7
31846.5
31799.6
31752.9
31706.5
31660.4
31614.6
-0.0173693
-0.0521799
-0.0871935
-0.122501
-0.158126
-0.193996
-0.229925
-0.265594
-0.300552
-0.334244
-0.366061
-0.395443
-0.422008
-0.445698
-0.466912
-0.0288678
-0.0867397
-0.144996
-0.203817
-0.26327
-0.323262
-0.383498
-0.443445
-0.502326
-0.559149
-0.612797
-0.662189
-0.706523
-0.745562
-0.779909
-0.0402309
-0.120914
-0.202229
-0.284493
-0.367866
-0.452274
-0.537346
-0.622345
-0.706138
-0.787209
-0.863764
-0.933967
-0.996305
-1.05009
-1.09597
-0.0513724
-0.154454
-0.258508
-0.364057
-0.471419
-0.580614
-0.691255
-0.80244
-0.91266
-1.01977
-1.12107
-1.21359
-1.29462
-1.3625
-1.41757
-0.0621747
-0.187015
-0.313285
-0.441795
-0.573123
-0.707489
-0.8446
-0.983475
-1.12226
-1.2581
-1.38712
-1.50467
-1.60604
-1.68767
-1.74881
-0.0724848
-0.21814
-0.365813
-0.516704
-0.671776
-0.831601
-0.996159
-1.16457
-1.33479
-1.50323
-1.66459
-1.81188
-1.93716
-2.03329
-2.09679
-0.0821074
-0.247244
-0.415113
-0.58742
-0.76566
-0.950961
-1.14384
-1.34384
-1.54905
-1.75541
-1.95611
-2.14106
-2.29738
-2.41148
-2.4738
-0.0908064
-0.273609
-0.459966
-0.652189
-0.852465
-1.06272
-1.28436
-1.51788
-1.7621
-2.01322
-2.26331
-2.49883
-2.69977
-2.84139
-2.90126
-0.0983134
-0.296412
-0.498939
-0.708886
-0.929268
-1.16306
-1.41299
-1.68116
-1.96823
-2.27201
-2.58503
-2.89111
-3.16141
-3.35298
-3.41683
-0.104346
-0.314778
-0.530479
-0.755128
-0.99264
-1.24722
-1.52333
-1.82549
-2.15761
-2.52149
-2.91362
-3.3191
-3.70171
-3.9922
-4.08809
-0.108636
-0.327864
-0.553055
-0.788486
-1.03892
-1.30981
-1.60759
-1.93982
-2.31518
-2.74266
-3.22879
-3.7699
-4.33406
-4.82593
-5.04251
-0.110965
-0.334979
-0.565373
-0.806821
-1.0647
-1.34548
-1.65735
-2.01096
-2.42056
-2.90514
-3.48893
-4.19755
-5.0386
-5.93485
-6.54462
-0.111204
-0.335705
-0.566618
-0.808703
-1.06753
-1.35003
-1.66532
-2.02608
-2.45089
-2.96833
-3.62416
-4.49268
-5.68785
-7.33013
-9.20361
-0.109348
-0.330005
-0.556673
-0.793813
-1.04666
-1.32174
-1.62777
-1.97709
-2.38852
-2.89307
-3.54663
-4.46108
-5.88986
-8.49408
-14.2858
31572.9
31535.1
31497.7
31460.4
31423.4
31386.7
31350.2
31314.1
31278.2
31242.6
31207.3
31172.4
31137.8
31103.6
31069.8
31036.3
31003.2
30970.6
30938.3
30906.4
30874.9
30843.8
30813
30782.6
30752.6
30722.9
30693.5
30664.4
30635.6
30607.1
30578.8
30550.7
30522.9
30495.2
30467.8
30440.4
30413.3
30386.2
30359.3
30332.5
30305.8
30279.2
30252.7
30226.3
30199.9
30173.6
30147.3
30121.1
30095
30068.8
30042.7
30016.6
29990.5
29964.4
29938.2
29912
29885.8
29859.5
29833.1
29806.6
29780
29753.3
29726.5
29699.5
29672.4
29645.2
29617.7
29590.2
29562.4
29534.5
29506.4
29478.1
29449.6
29420.9
29392
29362.9
29333.5
29304
29274.3
29244.3
29214.1
29183.6
29153
29122.1
29090.9
29059.5
29027.9
28996
28963.8
28931.5
-0.484925
-0.501087
-0.517958
-0.53646
-0.557371
-0.581174
-0.607951
-0.63733
-0.66852
-0.700408
-0.73172
-0.76118
-0.787664
-0.810283
-0.828415
-0.841667
-0.849813
-0.852726
-0.850333
-0.842611
-0.829616
-0.811515
-0.788622
-0.761396
-0.730425
-0.696379
-0.659971
-0.621922
-0.582945
-0.543725
-0.504915
-0.467101
-0.430781
-0.396326
-0.363972
-0.333825
-0.305898
-0.280145
-0.256503
-0.2349
-0.215236
-0.197345
-0.180951
-0.165634
-0.150841
-0.135927
-0.120232
-0.103165
-0.0842883
-0.0633617
-0.0403597
-0.0154467
0.0110664
0.0387725
0.0672097
0.0958917
0.12433
0.152058
0.178665
0.203831
0.227358
0.249185
0.269368
0.288045
0.305383
0.321526
0.336579
0.350605
0.363655
0.375806
0.387183
0.397954
0.40831
0.418417
0.428381
0.438231
0.447928
0.457402
0.46659
0.47546
0.484002
0.492194
0.499947
0.507051
0.513149
0.517746
0.520258
0.520083
0.516675
0.509612
-0.808551
-0.834031
-0.860687
-0.890296
-0.924386
-0.963938
-1.00916
-1.05939
-1.11315
-1.16833
-1.22255
-1.27346
-1.31902
-1.35773
-1.38859
-1.41105
-1.42485
-1.42983
-1.42588
-1.41293
-1.39101
-1.36036
-1.32148
-1.27518
-1.2225
-1.16463
-1.10281
-1.03827
-0.972221
-0.90583
-0.840218
-0.776418
-0.715302
-0.657513
-0.603429
-0.553178
-0.506714
-0.463909
-0.424637
-0.388805
-0.356313
-0.326955
-0.300312
-0.27568
-0.252064
-0.228273
-0.203064
-0.17533
-0.144261
-0.109436
-0.0708491
-0.028843
0.0159852
0.0628903
0.111055
0.159631
0.207765
0.25463
0.29948
0.341734
0.381045
0.417331
0.450751
0.481618
0.510282
0.537025
0.562012
0.585305
0.606936
0.626995
0.64569
0.663348
0.680351
0.697036
0.713606
0.73009
0.746371
0.762272
0.77765
0.792462
0.806751
0.820568
0.833847
0.846281
0.857257
0.865875
0.871046
0.871636
0.866634
0.85528
-1.13293
-1.16523
-1.19911
-1.23762
-1.28347
-1.33846
-1.40309
-1.47631
-1.55564
-1.63756
-1.71808
-1.79334
-1.86017
-1.91638
-1.96076
-1.99282
-2.01247
-2.01968
-2.01429
-1.99607
-1.96488
-1.92093
-1.8649
-1.79803
-1.72193
-1.63845
-1.54944
-1.45667
-1.36187
-1.26668
-1.17278
-1.08174
-0.994899
-0.913232
-0.837231
-0.766944
-0.702126
-0.642448
-0.587679
-0.537766
-0.492742
-0.452519
-0.416645
-0.384127
-0.353409
-0.322528
-0.2894
-0.25217
-0.209513
-0.160805
-0.106138
-0.0461816
0.0180332
0.0853126
0.154423
0.224121
0.293142
0.360212
0.424142
0.483984
0.539192
0.589707
0.635913
0.678463
0.718042
0.755146
0.789976
0.822489
0.852568
0.880232
0.905774
0.929768
0.95293
0.975898
0.99903
1.02231
1.04543
1.06796
1.08959
1.11028
1.13024
1.14978
1.16902
1.18766
1.20481
1.21902
1.22848
1.2313
1.22581
1.21075
-1.45917
-1.49413
-1.53084
-1.57437
-1.62937
-1.69911
-1.78464
-1.88441
-1.9944
-2.10883
-2.22118
-2.32536
-2.41664
-2.49212
-2.5507
-2.5925
-2.61807
-2.62774
-2.62125
-2.59796
-2.55722
-2.49897
-2.42406
-2.33427
-2.23213
-2.12036
-2.0016
-1.87817
-1.75221
-1.62586
-1.50141
-1.38119
-1.26725
-1.161
-1.06302
-0.973066
-0.89038
-0.814168
-0.743995
-0.679964
-0.622544
-0.572121
-0.528458
-0.490305
-0.455325
-0.420365
-0.382
-0.337194
-0.283855
-0.221142
-0.149442
-0.0700579
0.0152539
0.104676
0.196516
0.289153
0.380888
0.469871
0.554241
0.632452
0.703639
0.76783
0.825878
0.879127
0.928907
0.976079
1.02082
1.06272
1.10122
1.13607
1.16764
1.19695
1.22535
1.25409
1.28381
1.31436
1.34494
1.37455
1.40251
1.42877
1.45397
1.47906
1.50472
1.53087
1.55629
1.5787
1.59518
1.60267
1.59851
1.58077
-1.78947
-1.82045
-1.85269
-1.89454
-1.954
-2.03695
-2.14562
-2.27771
-2.4267
-2.58302
-2.73598
-2.87589
-2.99576
-3.09212
-3.16474
-3.21546
-3.2465
-3.25896
-3.25235
-3.22489
-3.1747
-3.10094
-3.00453
-2.88825
-2.75609
-2.61228
-2.46041
-2.30324
-2.14303
-1.98223
-1.82389
-1.67154
-1.52844
-1.39681
-1.27721
-1.16866
-1.06926
-0.977145
-0.891424
-0.812601
-0.742236
-0.681962
-0.632313
-0.591896
-0.5572
-0.523093
-0.48387
-0.434504
-0.371699
-0.294429
-0.203828
-0.102489
0.00652976
0.12053
0.237427
0.355446
0.472553
0.586128
0.693161
0.790982
0.878106
0.954738
1.02269
1.08472
1.14346
1.20045
1.25567
1.30777
1.35507
1.39656
1.43269
1.46534
1.49722
1.5308
1.56733
1.60629
1.64577
1.68346
1.71778
1.74872
1.7778
1.80742
1.83966
1.87506
1.91203
1.94688
1.97477
1.99075
1.9907
1.97172
-2.12835
-2.14492
-2.16065
-2.18928
-2.24472
-2.33773
-2.47279
-2.64662
-2.84839
-3.06199
-3.2695
-3.4552
-3.60867
-3.72621
-3.81022
-3.8667
-3.90157
-3.9176
-3.91336
-3.88445
-3.82605
-3.73543
-3.61354
-3.465
-3.29674
-3.11568
-2.92676
-2.73259
-2.53461
-2.33495
-2.13766
-1.94844
-1.77304
-1.61517
-1.47537
-1.35098
-1.23755
-1.1308
-1.0288
-0.932944
-0.847284
-0.776388
-0.722759
-0.685141
-0.658115
-0.63308
-0.600235
-0.551056
-0.480257
-0.386801
-0.273564
-0.14587
-0.00925829
0.132317
0.276827
0.423154
0.56941
0.711908
0.845451
0.96502
1.06778
1.15424
1.22815
1.29515
1.36062
1.42748
1.49509
1.55985
1.61736
1.66488
1.70285
1.73494
1.76671
1.80337
1.84742
1.89755
1.94929
1.99728
2.03803
2.07143
2.10095
2.13211
2.1701
2.21709
2.27088
2.32516
2.37156
2.40202
2.4102
2.39201
-2.48462
-2.47053
-2.44996
-2.44538
-2.4813
-2.57786
-2.74407
-2.97521
-3.25295
-3.54964
-3.83432
-4.08082
-4.27318
-4.40846
-4.49522
-4.5489
-4.58364
-4.60524
-4.60974
-4.58631
-4.52359
-4.41475
-4.2607
-4.0699
-3.8556
-3.63018
-3.40041
-3.16716
-2.92832
-2.68399
-2.43949
-2.20513
-1.99205
-1.8072
-1.65098
-1.51719
-1.39584
-1.27723
-1.15696
-1.03819
-0.93065
-0.845522
-0.789706
-0.762688
-0.755705
-0.753846
-0.739642
-0.698246
-0.62094
-0.507139
-0.36359
-0.201557
-0.0316525
0.140426
0.31416
0.49152
0.672238
0.851147
1.01844
1.16384
1.28152
1.37239
1.44413
1.50835
1.57638
1.65402
1.7392
1.82297
1.89461
1.94753
1.98203
2.00557
2.02974
2.06585
2.11929
2.18705
2.25872
2.32208
2.36935
2.40023
2.42221
2.44746
2.48803
2.54979
2.62946
2.71519
2.7917
2.84573
2.86802
2.85335
-2.8753
-2.8054
-2.71618
-2.64306
-2.6305
-2.7176
-2.92178
-3.23657
-3.6301
-4.05448
-4.45395
-4.78424
-5.01972
-5.1604
-5.22764
-5.25812
-5.28436
-5.31722
-5.34605
-5.3444
-5.28722
-5.15882
-4.9604
-4.70824
-4.43003
-4.15046
-3.87858
-3.60926
-3.32938
-3.03275
-2.72612
-2.43055
-2.16979
-1.95733
-1.79359
-1.66475
-1.54944
-1.42527
-1.28215
-1.12645
-0.980866
-0.871546
-0.81425
-0.810428
-0.844938
-0.891387
-0.91718
-0.896093
-0.813088
-0.669199
-0.479089
-0.267407
-0.0559852
0.147365
0.347499
0.556287
0.778923
1.00838
1.22422
1.40386
1.53517
1.61939
1.67226
1.71741
1.77961
1.871
1.98669
2.10486
2.20014
2.25802
2.27832
2.27658
2.27688
2.30464
2.37182
2.47216
2.58133
2.67124
2.72547
2.74299
2.7399
2.74186
2.77653
2.85775
2.9803
3.11946
3.24514
3.33599
3.3799
3.37233
-3.33255
-3.168
-2.95913
-2.75342
-2.63606
-2.68861
-2.94011
-3.38443
-3.96268
-4.59506
-5.17305
-5.62401
-5.90261
-6.01786
-6.01276
-5.97322
-5.97526
-6.03471
-6.12592
-6.18214
-6.15305
-6.00332
-5.73707
-5.38367
-5.00593
-4.65915
-4.35253
-4.06601
-3.75399
-3.39529
-2.99618
-2.6052
-2.27725
-2.03658
-1.88517
-1.79201
-1.71498
-1.59977
-1.42457
-1.19926
-0.977914
-0.821673
-0.760766
-0.801908
-0.915893
-1.05756
-1.16109
-1.18194
-1.09173
-0.896596
-0.624397
-0.331592
-0.0673704
0.160289
0.369757
0.602508
0.877193
1.18666
1.48356
1.71492
1.85813
1.91301
1.91303
1.90341
1.94231
2.05451
2.23213
2.42122
2.56104
2.62416
2.60787
2.54617
2.48595
2.48816
2.57807
2.74601
2.9331
3.07323
3.13581
3.1168
3.05168
2.99047
2.99928
3.10745
3.30844
3.54433
3.74982
3.8949
3.96687
3.97208
-3.91633
-3.5943
-3.1974
-2.73642
-2.39682
-2.37298
-2.68061
-3.33926
-4.2172
-5.21381
-6.07496
-6.71189
-7.02062
-7.04856
-6.84742
-6.6284
-6.58344
-6.70643
-6.95614
-7.14268
-7.19259
-7.01561
-6.6393
-6.09421
-5.53729
-5.1101
-4.79762
-4.55954
-4.24589
-3.81614
-3.25469
-2.68922
-2.25919
-1.98748
-1.89306
-1.89625
-1.93571
-1.86093
-1.63945
-1.26667
-0.88157
-0.634897
-0.560715
-0.688882
-0.947398
-1.27911
-1.52454
-1.62825
-1.52201
-1.23556
-0.799992
-0.355234
-0.0267392
0.198777
0.357854
0.587693
0.92471
1.38234
1.83659
2.15221
2.30757
2.2849
2.16694
2.01882
1.99872
2.14308
2.46031
2.80777
3.03163
3.10391
3.00205
2.81289
2.60441
2.54471
2.67128
2.99161
3.35187
3.58624
3.66303
3.55638
3.35721
3.13766
3.07843
3.22294
3.58585
4.01249
4.34101
4.55859
4.64946
4.68334
-4.73886
-4.12827
-3.52777
-2.54447
-1.70266
-1.57984
-1.91544
-2.97816
-4.30068
-6.02749
-7.29971
-8.27233
-8.543
-8.40925
-7.70797
-7.03315
-6.95007
-7.196
-7.8777
-8.30042
-8.55937
-8.31553
-7.78523
-6.82254
-5.88266
-5.39679
-5.13654
-5.16292
-4.90609
-4.42778
-3.52028
-2.57958
-2.01462
-1.68463
-1.76202
-1.95
-2.32275
-2.33528
-2.07421
-1.35399
-0.588165
-0.20214
-0.0717981
-0.390744
-0.876203
-1.62769
-2.09502
-2.37991
-2.21499
-1.79252
-0.992237
-0.21496
0.158584
0.329264
0.240329
0.414754
0.794707
1.57895
2.38527
2.81624
3.00927
2.7899
2.46012
1.9457
1.8141
1.97846
2.6407
3.36807
3.71621
3.83018
3.51771
3.10321
2.50444
2.32887
2.4814
3.17565
3.94793
4.3223
4.45058
4.12543
3.68842
3.05041
2.86069
3.02055
3.7682
4.61873
5.08893
5.40179
5.41123
5.55131
-6.04296
-4.64752
-4.40923
-2.14862
0.0269755
-0.126443
-0.103081
-2.24284
-3.80185
-7.49565
-8.95577
-10.8434
-10.6476
-10.587
-8.53021
-6.58554
-6.84269
-7.05783
-9.17202
-9.69377
-10.6499
-10.0277
-9.55348
-7.51766
-5.57386
-5.35822
-5.06237
-6.17377
-5.88487
-5.65703
-3.8332
-1.92833
-1.43118
-0.794649
-1.47123
-1.73721
-3.22803
-3.20312
-3.16955
-1.50638
0.252841
0.599484
1.06474
0.147802
-0.421312
-2.38483
-2.92755
-3.77859
-3.27812
-2.89276
-1.15053
0.507542
0.636882
0.834417
-0.25561
-0.053312
0.0833913
1.74469
3.47539
3.82385
4.30573
3.45483
3.0201
1.32226
1.20424
1.09787
2.72828
4.4754
4.73897
5.1715
4.18128
3.65989
1.79606
1.64158
1.51241
3.2483
5.11791
5.41363
5.89202
4.85652
4.31007
2.31857
2.14052
1.9726
3.80325
5.77341
6.06418
6.68274
5.98575
6.6945
-8.69958
-3.50036
-8.20264
-1.63018
5.11055
1.07255
4.82434
-2.34367
-0.228759
-12.1802
-9.99597
-16.4147
-12.5572
-15.6391
-9.19077
-2.96709
-6.79557
-4.18477
-12.7592
-10.4613
-15.0131
-11.5264
-13.5702
-8.07995
-2.77615
-5.4348
-2.96133
-9.20071
-6.77531
-9.18414
-4.26235
0.750481
-1.04796
1.98675
-1.77124
0.239874
-6.31549
-4.08289
-6.61102
-1.7965
3.12856
1.23094
4.19229
0.186101
2.04218
-5.18734
-3.31545
-7.12283
-4.17479
-5.9462
-1.1869
3.43219
1.01777
3.19448
-2.61171
-0.426099
-2.82254
1.81134
6.55676
4.64022
7.52231
3.52134
5.39986
-1.57524
0.578517
-2.28277
2.64872
7.71995
5.51936
8.5625
4.17069
6.15061
-1.37281
0.918782
-2.14129
3.12932
8.55522
6.24283
9.51435
4.88432
7.01348
-1.02365
1.40664
-1.95234
3.63824
9.34726
6.56825
9.85883
4.53691
8.76306
-18.1832
11.9052
-28.2315
-1.35385
25.7158
-8.94553
25.4765
-15.8117
23.6001
-37.2199
1.35228
-36.7836
-4.47401
-34.4146
-9.52774
15.1265
-16.0209
14.7952
-32.0027
-1.3654
-30.9516
-5.06125
-28.4361
-8.37386
11.4874
-12.9018
11.6861
-24.7052
-0.704631
-23.2677
-4.8229
13.2373
-7.62486
14.5494
-10.3792
14.5523
-22.0582
1.89229
-20.6266
-2.24643
15.8283
-5.13528
17.3524
-8.21808
17.5882
-21.0968
4.47389
-20.196
1.72349
-18.405
-1.02253
16.4839
-5.21384
17.0487
-16.4773
5.79796
-15.8535
1.71596
19.23
-1.45488
20.649
-4.88008
20.5273
-17.6198
7.17293
-16.8866
2.36638
21.4343
-1.25278
22.6582
-5.01673
22.3245
-18.6768
7.90084
-17.7926
2.78524
23.1342
-0.970191
24.5134
-4.82249
24.3549
-19.4402
9.00804
-18.7658
3.30153
25.1428
-1.66894
25.4358
-10.6623
16.7185
28895.6
28856.1
28816.3
28776.1
28735.7
28695
28654.1
28612.9
28571.6
28530.1
28488.5
28446.7
28404.8
28362.9
28321
0.497551
0.478756
0.454658
0.425923
0.393431
0.358137
0.320963
0.282716
0.244038
0.205397
0.167083
0.129238
0.0918836
0.0549439
0.0182816
0.83531
0.803651
0.762781
0.713946
0.658751
0.598918
0.536074
0.471621
0.40665
0.341929
0.277924
0.214839
0.152674
0.0912699
0.0303649
1.18293
1.13775
1.07886
1.00832
0.928695
0.842693
0.752787
0.66104
0.569012
0.477751
0.38785
0.299526
0.212705
0.127099
0.0422758
1.54522
1.48542
1.40647
1.31164
1.20491
1.09027
0.97126
0.850679
0.730559
0.612179
0.496179
0.382701
0.271518
0.162143
0.0539166
1.92848
1.85218
1.74989
1.62681
1.48896
1.34216
1.19123
1.0398
0.890327
0.744192
0.601956
0.46356
0.328514
0.196035
0.0651632
2.34091
2.24497
2.11412
1.95671
1.78193
1.59808
1.41159
1.22691
1.0467
0.872266
0.703862
0.541049
0.382926
0.228313
0.0758616
2.79374
2.67283
2.50506
2.30408
2.08401
1.85658
1.63005
1.40943
1.19723
0.994256
0.800142
0.61382
0.433813
0.25842
0.0858276
3.30298
3.14803
2.92959
2.67088
2.3937
2.11429
1.84256
1.58341
1.33844
1.10731
0.888578
0.680243
0.480064
0.285713
0.0948513
3.89218
3.68728
3.39492
3.05667
2.70619
2.36473
2.04265
1.74319
1.46574
1.20789
0.966551
0.738465
0.520457
0.3095
0.102708
4.59874
4.31371
3.90595
3.45468
3.01011
2.59631
2.22044
1.88107
1.57341
1.2919
1.03121
0.786559
0.553765
0.329101
0.109181
5.49597
5.06119
4.4591
3.84459
3.28287
2.79016
2.36198
1.98735
1.65496
1.35506
1.07976
0.822754
0.57891
0.343938
0.114088
6.76827
5.97661
5.02526
4.18068
3.48592
2.91941
2.45006
2.05148
1.70403
1.39359
1.10998
0.845745
0.595154
0.353638
0.117315
8.91359
7.05169
5.4862
4.36705
3.56052
2.95151
2.46743
2.06453
1.71609
1.40523
1.1208
0.855044
0.602296
0.358127
0.118846
13.084
7.8292
5.50041
4.24057
3.4375
2.85879
2.40372
2.02314
1.69055
1.3904
1.11287
0.851292
0.600829
0.357708
0.118782
-0.105987
-0.319693
-0.538696
-0.766876
-1.0087
-1.26963
-1.55671
-1.87962
-2.25261
-2.69835
-3.25649
-4.00509
-5.12087
-7.07115
-11.2882
-0.101596
-0.306236
-0.515275
-0.731855
-0.95945
-1.20205
-1.46437
-1.75217
-2.07242
-2.4333
-2.84211
-3.29501
-3.72996
-3.81058
-1.89862
-0.0961978
-0.289712
-0.486601
-0.689162
-0.899749
-1.12073
-1.35431
-1.60212
-1.86399
-2.13492
-2.39703
-2.59732
-2.58502
-1.93367
0.529363
-0.0900189
-0.270836
-0.453969
-0.640871
-0.8328
-1.03061
-1.23434
-1.44227
-1.64921
-1.84263
-1.99482
-2.04719
-1.88381
-1.31477
-0.249383
-0.0832951
-0.250342
-0.418704
-0.589062
-0.761733
-0.936362
-1.11139
-1.28308
-1.44379
-1.57892
-1.66185
-1.64679
-1.46426
-1.04046
-0.403194
-0.0762508
-0.228923
-0.382034
-0.535622
-0.689272
-0.841795
-0.990716
-1.13146
-1.25608
-1.35143
-1.39686
-1.36259
-1.21223
-0.91428
-0.443004
-0.0690842
-0.207187
-0.345015
-0.482111
-0.617558
-0.749688
-0.875678
-0.990991
-1.08866
-1.15857
-1.18714
-1.15889
-1.06266
-0.908377
-0.770779
-0.0619592
-0.18563
-0.308484
-0.429718
-0.548112
-0.661802
-0.768008
-0.862729
-0.940489
-0.994367
-1.01682
-1.00231
-0.953324
-0.890783
-0.861455
-0.0550022
-0.164629
-0.273058
-0.379269
-0.481896
-0.579069
-0.668266
-0.746197
-0.808859
-0.851953
-0.872105
-0.86955
-0.853322
-0.850025
-0.916156
-0.0483033
-0.144448
-0.239153
-0.331281
-0.419429
-0.501832
-0.576297
-0.64022
-0.690771
-0.725431
-0.743102
-0.746191
-0.744253
-0.760937
-0.85364
-0.0419211
-0.125253
-0.207016
-0.286027
-0.360914
-0.430062
-0.4916
-0.543476
-0.583673
-0.610659
-0.624159
-0.626216
-0.622168
-0.618939
-0.605529
-0.0358889
-0.107137
-0.176767
-0.243605
-0.306346
-0.363531
-0.413563
-0.454793
-0.4857
-0.505205
-0.513086
-0.510369
-0.499441
-0.483884
-0.473461
-0.0302203
-0.0901319
-0.148437
-0.203999
-0.255597
-0.30192
-0.341588
-0.373228
-0.3956
-0.407775
-0.409293
-0.400101
-0.379862
-0.345136
-0.276088
-0.0249146
-0.0742295
-0.121989
-0.167113
-0.208471
-0.244882
-0.275136
-0.298047
-0.312534
-0.317701
-0.31286
-0.297376
-0.270284
-0.230101
-0.178319
-0.0199617
-0.0593946
-0.0973479
-0.13281
-0.16474
-0.192071
-0.213729
-0.228665
-0.235897
-0.234534
-0.223743
-0.202586
-0.169739
-0.123006
-0.0563557
-0.015345
-0.0455738
-0.0744144
-0.100928
-0.124161
-0.14315
-0.156936
-0.16458
-0.165182
-0.157871
-0.141754
-0.115792
-0.0787782
-0.0296347
0.0336745
-0.0110442
-0.0327037
-0.0530741
-0.0712909
-0.0864855
-0.0977908
-0.104351
-0.10533
-0.0999137
-0.0872808
-0.0665288
-0.0365496
0.00382869
0.054029
0.101659
-0.00703687
-0.020715
-0.0332062
-0.0437197
-0.0514684
-0.0556759
-0.0555852
-0.0504653
-0.0396068
-0.0222848
0.00235861
0.0355998
0.0797125
0.139594
0.231137
-0.00329968
-0.00953673
-0.0146882
-0.0180348
-0.0188672
-0.0164942
-0.0102545
0.00047265
0.0162635
0.0376733
0.0653427
0.100314
0.144741
0.203302
0.284345
0.000190507
0.000901505
0.00260026
0.00593798
0.0115518
0.0200543
0.0320175
0.0479529
0.0682865
0.093337
0.123334
0.15858
0.200044
0.251531
0.32789
0.00345619
0.0106678
0.0187745
0.0283643
0.040009
0.0542517
0.0715885
0.092437
0.117088
0.14562
0.177762
0.212656
0.248456
0.282621
0.32286
0.00651874
0.0198266
0.0339431
0.0493983
0.0667064
0.0863535
0.108778
0.134338
0.163246
0.19545
0.230366
0.266238
0.29806
0.309626
0.237183
0.00939821
0.0284382
0.0482064
0.0691805
0.0918247
0.11658
0.143849
0.17397
0.207167
0.243445
0.282391
0.322771
0.361787
0.395091
0.430675
0.0121133
0.0365584
0.0616567
0.0878381
0.115522
0.145115
0.176998
0.211525
0.248998
0.289634
0.333499
0.380389
0.429549
0.479108
0.523811
0.0146815
0.0442393
0.0743797
0.105487
0.137941
0.172113
0.208372
0.247094
0.288684
0.333625
0.382581
0.436568
0.497132
0.566619
0.652281
0.0171193
0.05153
0.0864557
0.122237
0.159212
0.197717
0.238097
0.280733
0.326095
0.374874
0.428237
0.488303
0.558615
0.643032
0.7336
0.0194425
0.0584777
0.0979625
0.138194
0.179466
0.222072
0.266316
0.312539
0.361191
0.412993
0.469318
0.53305
0.610401
0.71532
0.884121
0.0216662
0.0651279
0.108976
0.153464
0.198839
0.245346
0.293222
0.34272
0.394155
0.448025
0.505344
0.568476
0.64314
0.743398
0.905059
0.0238051
0.0715245
0.11957
0.168152
0.217474
0.267722
0.319059
0.371616
0.425483
0.480717
0.537422
0.596038
0.658195
0.728985
0.82053
0.025873
0.0777095
0.129815
0.182363
0.235512
0.289397
0.344109
0.399661
0.455913
0.512441
0.56826
0.621283
0.667326
0.700301
0.733926
0.0278828
0.0837219
0.139779
0.196193
0.253085
0.310552
0.368636
0.427277
0.486203
0.544708
0.601127
0.651522
0.685588
0.671304
0.484735
0.0298464
0.0895974
0.149521
0.209725
0.270306
0.331334
0.392837
0.454752
0.516835
0.578469
0.638262
0.693246
0.737479
0.762071
0.779285
0.0317744
0.0953676
0.159092
0.223032
0.287261
0.351842
0.416812
0.482169
0.547828
0.613553
0.678814
0.742578
0.803075
0.8581
0.906337
0.0336764
0.101061
0.168539
0.236172
0.304018
0.372134
0.44058
0.509435
0.578827
0.649003
0.720476
0.794317
0.872565
0.95896
1.0639
0.0355612
0.106703
0.177903
0.2492
0.320634
0.392251
0.464125
0.536389
0.609333
0.683595
0.760562
0.843115
0.936492
1.04707
1.1655
0.0374372
0.112319
0.187225
0.262168
0.337166
0.412245
0.487457
0.562931
0.638981
0.71636
0.796844
0.88452
0.988568
1.12986
1.3616
0.0393125
0.117934
0.196543
0.275132
0.353687
0.432199
0.510667
0.589134
0.667759
0.747022
0.828215
0.914687
1.01487
1.14999
1.37539
0.041195
0.123571
0.205901
0.288153
0.370282
0.452235
0.533935
0.615282
0.696148
0.776396
0.856003
0.935468
1.017
1.10755
1.22164
0.043092
0.129252
0.215338
0.301292
0.387044
0.472498
0.557505
0.641821
0.725014
0.806264
0.883974
0.954948
1.01293
1.04891
1.08239
0.0450103
0.134999
0.224889
0.314605
0.404058
0.493122
0.581609
0.669196
0.755277
0.838638
0.916702
0.983587
1.02419
0.992133
0.708264
0.0469554
0.140828
0.234583
0.328135
0.421384
0.514199
0.606396
0.69767
0.787473
0.874735
0.957271
1.03061
1.08596
1.11034
1.12076
0.0489316
0.146752
0.244441
0.341909
0.439052
0.535757
0.631878
0.727219
0.821481
0.914151
1.0043
1.09025
1.1693
1.23835
1.29647
0.0509419
0.152779
0.254477
0.355939
0.457068
0.55777
0.657957
0.757573
0.856641
0.955359
1.0543
1.15482
1.25966
1.37407
1.51256
0.0529889
0.158917
0.264698
0.370231
0.475423
0.58019
0.684487
0.788363
0.892092
0.996448
1.10327
1.21651
1.34345
1.49317
1.6527
0.0550743
0.165171
0.275112
0.384793
0.494113
0.602985
0.711363
0.819309
0.927158
1.03587
1.14785
1.26877
1.41151
1.60558
1.92612
0.0571998
0.171545
0.285728
0.399635
0.513154
0.62617
0.73859
0.850378
0.961673
1.07307
1.1863
1.30601
1.44401
1.6303
1.94331
0.059367
0.178046
0.296556
0.414778
0.532582
0.649817
0.766306
0.881839
0.996165
1.10903
1.22033
1.33067
1.44303
1.56714
1.72293
0.0615767
0.184675
0.307605
0.430242
0.552444
0.674026
0.794737
0.914186
1.03172
1.14612
1.2551
1.35404
1.43397
1.48208
1.52545
0.0638286
0.191433
0.318877
0.446038
0.572773
0.698887
0.824093
0.947914
1.06947
1.18703
1.29691
1.39072
1.44704
1.40044
0.998504
0.0661209
0.198315
0.330364
0.46216
0.59357
0.724422
0.85446
0.983259
1.11005
1.23331
1.34995
1.45356
1.53161
1.56566
1.57929
0.0684498
0.20531
0.342048
0.478577
0.614792
0.750567
0.885734
1.02005
1.15311
1.28423
1.41208
1.53426
1.6468
1.74515
1.82729
0.0708099
0.2124
0.353897
0.495239
0.636355
0.777177
0.917648
1.05775
1.19757
1.33744
1.47821
1.62177
1.77191
1.93599
2.13451
0.0731946
0.219564
0.365874
0.512084
0.658157
0.804073
0.949864
1.09569
1.24203
1.39007
1.54246
1.70481
1.8874
2.10302
2.33307
0.0755966
0.226781
0.377938
0.52905
0.680102
0.831098
0.9821
1.13332
1.28536
1.4397
1.59985
1.77388
1.98003
2.26013
2.72063
0.0780082
0.234027
0.390052
0.546084
0.702119
0.858158
1.01422
1.17043
1.32714
1.48535
1.64766
1.82074
2.02136
2.29207
2.74389
0.0804214
0.241279
0.402179
0.56314
0.724166
0.885236
1.04629
1.20724
1.36792
1.52817
1.68805
1.84857
2.01407
2.19835
2.42911
0.0828275
0.248512
0.414281
0.580176
0.746214
0.91236
1.07848
1.24427
1.40902
1.57129
1.72807
1.87305
1.99379
2.07244
2.14721
0.0852163
0.255696
0.426311
0.597137
0.768218
0.939536
1.11095
1.28205
1.45188
1.61827
1.77632
1.91447
2.00277
1.94932
1.3983
0.0875758
0.262794
0.438211
0.613944
0.790087
0.966684
1.14367
1.32075
1.49715
1.67106
1.83844
1.9906
2.11023
2.17182
2.20887
0.0898918
0.269765
0.449906
0.630487
0.811671
0.993598
1.17636
1.35996
1.54419
1.72842
1.91118
2.08943
2.25801
2.41144
2.54908
0.0921484
0.276559
0.461311
0.646634
0.832768
1.01996
1.20851
1.39876
1.59125
1.78683
1.98709
2.19505
2.41639
2.66209
2.96131
0.094329
0.283124
0.472332
0.66224
0.853154
1.04543
1.23951
1.43606
1.63619
1.84202
2.05771
2.29144
2.55791
2.87565
3.22201
0.0964173
0.28941
0.482882
0.677166
0.872622
1.06966
1.26883
1.47089
1.67721
1.89039
2.11583
2.36517
2.66387
3.06941
3.72598
0.0983981
0.295372
0.492881
0.691297
0.891012
1.09246
1.29616
1.50281
1.7135
1.93027
2.1574
2.40471
2.69568
3.08894
3.73791
0.100258
0.300969
0.502264
0.704545
0.908222
1.11372
1.32148
1.53195
1.74559
1.96297
2.18502
2.414
2.65652
2.93095
3.26912
0.101986
0.306166
0.510975
0.71684
0.924189
1.13344
1.34495
1.55891
1.77511
1.99246
2.20785
2.41396
2.59521
2.72879
2.86633
0.103571
0.310933
0.518965
0.72812
0.938858
1.15162
1.36674
1.58434
1.80387
2.02332
2.23719
2.43126
2.56704
2.52394
1.8308
0.105003
0.315243
0.526185
0.738317
0.952143
1.16817
1.38685
1.60845
1.83269
2.05808
2.2803
2.4891
2.6631
2.77058
2.85671
0.106277
0.31907
0.532589
0.747352
0.963919
1.1829
1.40496
1.63074
1.86074
2.09505
2.33277
2.57118
2.80539
3.03208
3.26212
0.107386
0.322397
0.538139
0.755147
0.974034
1.19553
1.42051
1.65011
1.88581
2.12967
2.38479
2.65624
2.95292
3.29132
3.71002
0.108331
0.325222
0.542818
0.76165
0.982356
1.20574
1.43288
1.66528
1.90524
2.15649
2.42548
2.72383
3.07152
3.49484
3.97788
0.109119
0.327563
0.546645
0.766862
0.988832
1.21337
1.4416
1.67522
1.91685
2.17099
2.44581
2.7572
3.13762
3.65693
4.48239
0.109765
0.329465
0.549691
0.770869
0.993539
1.21844
1.44661
1.6796
1.91979
2.17114
2.44076
2.74269
3.10728
3.60646
4.42991
0.110296
0.331004
0.552084
0.773846
0.996709
1.22125
1.4483
1.679
1.91499
2.15861
2.4133
2.68472
2.9835
3.33086
3.74613
0.110745
0.332289
0.554007
0.776067
0.998722
1.22234
1.44745
1.67473
1.90491
2.1384
2.37424
2.60777
2.82601
3.00812
3.21555
0.111159
0.333455
0.555696
0.777883
1.00007
1.22241
1.44511
1.66847
1.89255
2.11654
2.33681
2.54149
2.6936
2.66783
1.95691
0.111588
0.334661
0.557427
0.779701
1.00133
1.22222
1.44233
1.6617
1.88025
2.09728
2.31023
2.51174
2.68471
2.80336
2.92251
0.11209
0.33608
0.559502
0.781972
1.00311
1.22257
1.44008
1.65552
1.86899
2.08085
2.29159
2.50184
2.71355
2.93855
3.22943
0.112723
0.337896
0.562241
0.78517
1.00606
1.22428
1.43926
1.65071
1.85887
2.06519
2.27331
2.49094
2.73317
3.02801
3.42321
0.113545
0.340287
0.565964
0.789786
1.01087
1.22823
1.44091
1.64817
1.85002
2.04827
2.24842
2.46296
2.71625
3.04777
3.49245
0.114608
0.343419
0.570974
0.796304
1.01825
1.23545
1.44633
1.64939
1.84368
2.03004
2.21353
2.40808
2.64501
2.98895
3.56763
0.115952
0.347421
0.577528
0.805169
1.02894
1.24703
1.45718
1.65669
1.84283
2.01379
2.17097
2.32375
2.49946
2.76711
3.31758
0.117596
0.352367
0.585793
0.816715
1.04356
1.26414
1.4754
1.67327
1.85251
2.00711
2.13146
2.2235
2.29007
2.34885
2.37539
0.119534
0.358243
0.59579
0.831086
1.06253
1.28769
1.50291
1.70276
1.8793
2.02141
2.11438
2.14094
2.08607
1.95298
1.8328
0.121718
0.364923
0.607344
0.848123
1.08584
1.31812
1.54109
1.74841
1.92998
2.06983
2.14341
2.11491
1.9364
1.54813
0.83432
0.124061
0.372143
0.620027
0.867272
1.1129
1.35501
1.59009
1.81193
2.00962
2.16425
2.24333
2.19305
1.93239
1.36933
0.498898
0.126427
0.379496
0.633141
0.887523
1.14239
1.39675
1.64827
1.89218
2.11915
2.31114
2.43309
2.41729
2.13839
1.40394
0.155725
0.128644
0.386439
0.645731
0.907418
1.17221
1.44043
1.7117
1.98417
2.25297
2.50667
2.71854
2.82423
2.66071
1.7953
-0.934186
0.130505
0.392335
0.656643
0.925137
1.19961
1.48196
1.77426
2.07867
2.39729
2.73127
3.07776
3.41813
3.67037
3.48105
1.25701
0.131793
0.3965
0.664632
0.938679
1.22149
1.51655
1.82837
2.16329
2.53094
2.94722
3.44131
4.07329
4.98649
6.57934
10.124
9.92906
6.25237
4.64353
3.74394
3.13563
2.6692
2.28219
1.94445
1.63952
1.35751
1.09198
0.838365
0.593217
0.353751
0.11756
0.6425
3.0268
3.27159
3.05508
2.74761
2.43403
2.13305
1.84723
1.5752
1.31474
1.06368
0.820001
0.581869
0.347602
0.115616
-1.60165
1.28706
2.21989
2.42929
2.3638
2.19012
1.97337
1.74044
1.50281
1.26543
1.03024
0.797763
0.56782
0.339859
0.113145
-0.270316
0.905501
1.67048
1.99432
2.05512
1.97612
1.82495
1.63689
1.43023
1.21456
0.994879
0.773747
0.552381
0.331242
0.110377
-0.130981
0.809168
1.42735
1.742
1.84352
1.81224
1.70216
1.54624
1.36389
1.16645
0.960502
0.749875
0.53677
0.322426
0.107527
0.14905
0.936367
1.39497
1.63766
1.72416
1.70308
1.61118
1.47392
1.30802
1.12423
0.929353
0.727707
0.522008
0.313987
0.104783
1.06485
1.29181
1.51251
1.64177
1.6795
1.6431
1.55171
1.42147
1.26455
1.08967
0.902888
0.708339
0.508849
0.306366
0.102289
1.56144
1.65157
1.69355
1.70945
1.68631
1.62129
1.51922
1.38753
1.23354
1.06337
0.881803
0.692391
0.49776
0.299848
0.10014
2.42355
2.04477
1.8927
1.80424
1.7222
1.62521
1.50728
1.36907
1.21375
1.04498
0.866153
0.68006
0.488944
0.294575
0.0983863
2.68959
2.28053
2.04767
1.89456
1.76846
1.64368
1.50942
1.36249
1.20328
1.03358
0.855539
0.671213
0.482384
0.290563
0.0970382
2.75009
2.39394
2.14724
1.96614
1.81381
1.66873
1.52034
1.36443
1.20009
1.02796
0.849289
0.66549
0.4779
0.287732
0.096073
2.75007
2.43132
2.20126
2.01773
1.85411
1.69607
1.53649
1.37223
1.20231
1.02687
0.8466
0.662398
0.475206
0.285936