/*--------------------------------*- C++ -*----------------------------------*\
| =========                 |                                                 |
| \\      /  F ield         | OpenFOAM: The Open Source CFD Toolbox           |
|  \\    /   O peration     | Version:  5.x                                   |
|   \\  /    A nd           | Web:      www.OpenFOAM.org                      |
|    \\/     M anipulation  |                                                 |
\*---------------------------------------------------------------------------*/
FoamFile
{
    version     2.0;
    format      ascii;
    class       volScalarField;
    location    "3.2";
    object      gradTx;
}
// * * * * * * * * * * * * * * * * * * * * * * * * * * * * * * * * * * * * * //

dimensions      [0 -1 0 1 0 0 0];

internalField   nonuniform List<scalar> 
6300
(
-48.0684
-48.0453
-47.9988
-47.929
-47.8355
-47.7183
-47.5773
-47.4125
-47.2244
-47.0136
-46.7811
-46.5283
-46.2571
-45.9692
-45.6662
-48.0916
-48.0686
-48.0223
-47.9526
-47.8593
-47.7422
-47.6011
-47.436
-47.2472
-47.0353
-46.8014
-46.547
-46.2739
-45.9843
-45.6801
-48.138
-48.1151
-48.0691
-47.9999
-47.907
-47.7901
-47.6489
-47.4832
-47.293
-47.0791
-46.8423
-46.5843
-46.3074
-46.0141
-45.7071
-48.2073
-48.1847
-48.1394
-48.0709
-47.9788
-47.8624
-47.7213
-47.5548
-47.3629
-47.1457
-46.9044
-46.6407
-46.3573
-46.0576
-45.7456
-48.2991
-48.2771
-48.2327
-48.1656
-48.0748
-47.9596
-47.819
-47.652
-47.4579
-47.2367
-46.989
-46.7168
-46.4235
-46.1137
-45.7933
-48.4131
-48.3918
-48.349
-48.2838
-48.1953
-48.0823
-47.9431
-47.7762
-47.5802
-47.3541
-47.0982
-46.8142
-46.5062
-46.1806
-45.8461
-48.5483
-48.5282
-48.4875
-48.4254
-48.3405
-48.2311
-48.095
-47.9296
-47.7325
-47.5015
-47.2356
-46.9358
-46.6065
-46.2565
-45.8988
-48.7037
-48.6852
-48.6475
-48.5898
-48.5102
-48.4067
-48.2761
-48.1148
-47.9188
-47.684
-47.4069
-47.0868
-46.7276
-46.3402
-45.944
-48.8777
-48.8612
-48.8277
-48.7759
-48.704
-48.6093
-48.4878
-48.3348
-48.1441
-47.9086
-47.6212
-47.277
-46.8769
-46.4329
-45.9729
-49.0681
-49.0543
-49.0261
-48.9823
-48.9208
-48.8386
-48.7312
-48.5926
-48.4142
-48.1852
-47.8925
-47.5233
-47.0701
-46.5417
-45.9756
-49.2724
-49.2618
-49.2402
-49.2063
-49.1582
-49.093
-49.0059
-48.8901
-48.735
-48.5254
-48.2403
-47.8534
-47.3388
-46.6883
-45.9448
-49.4872
-49.4804
-49.4665
-49.4444
-49.4129
-49.3692
-49.3095
-49.2268
-49.1102
-48.9412
-48.6901
-48.3113
-47.7432
-46.9281
-45.8841
-49.7089
-49.7062
-49.7008
-49.6921
-49.6795
-49.6617
-49.6359
-49.5977
-49.5378
-49.439
-49.2676
-48.9587
-48.3948
-47.3968
-45.8301
-49.9332
-49.9349
-49.9383
-49.9437
-49.9515
-49.9619
-49.975
-49.9901
-50.0044
-50.0095
-49.9825
-49.861
-49.4806
-48.4341
-45.9466
-50.1558
-50.1617
-50.1738
-50.193
-50.2209
-50.2594
-50.312
-50.3832
-50.4801
-50.6123
-50.7919
-51.0224
-51.2323
-50.9125
-47.1538
-45.3769
-45.1038
-44.8214
-44.529
-44.2257
-43.91
-43.5803
-43.2354
-42.874
-42.4955
-42.0999
-41.6879
-41.2608
-40.8204
-40.369
-39.9091
-39.4436
-38.9751
-38.5068
-38.0414
-37.5819
-37.1313
-36.6921
-36.267
-35.858
-35.4672
-35.096
-34.7455
-34.4164
-34.1092
-33.8236
-33.5595
-33.3161
-33.0925
-32.8877
-32.7005
-32.5296
-32.3739
-32.2322
-32.1033
-31.9862
-31.8798
-31.7832
-31.6958
-31.6171
-31.547
-31.4859
-31.4341
-31.3926
-31.3624
-31.3445
-31.3401
-31.35
-31.3749
-31.4155
-31.472
-31.5442
-31.6321
-31.735
-31.8523
-31.9832
-32.1267
-32.2819
-32.4479
-32.624
-32.8094
-33.0034
-33.2055
-33.415
-33.6315
-33.8545
-34.0836
-34.3184
-34.5588
-34.8047
-35.0559
-35.3123
-35.5739
-35.8404
-36.1117
-36.3876
-36.6679
-36.9524
-37.2406
-37.532
-37.8261
-38.1216
-38.4173
-38.7116
-39.0025
-45.3902
-45.1173
-44.8358
-44.545
-44.2437
-43.9301
-43.6026
-43.2593
-42.8988
-42.5203
-42.1238
-41.7099
-41.2802
-40.8365
-40.3814
-39.9176
-39.4479
-38.9753
-38.5027
-38.0331
-37.5696
-37.115
-36.6723
-36.2439
-35.8323
-35.4393
-35.0664
-34.7149
-34.3854
-34.0782
-33.7932
-33.53
-33.2879
-33.0659
-32.8627
-32.6772
-32.5081
-32.3541
-32.214
-32.0867
-31.971
-31.8659
-31.7703
-31.6835
-31.605
-31.5346
-31.4726
-31.4196
-31.3766
-31.3448
-31.3254
-31.3196
-31.3284
-31.3527
-31.3928
-31.4493
-31.5219
-31.6105
-31.7144
-31.8329
-31.9651
-32.1099
-32.2663
-32.4335
-32.6106
-32.7969
-32.9918
-33.1946
-33.4049
-33.6221
-33.8456
-34.0751
-34.3102
-34.5508
-34.7968
-35.0481
-35.3047
-35.5665
-35.8332
-36.1048
-36.381
-36.6616
-36.9466
-37.2355
-37.528
-37.8235
-38.1209
-38.4189
-38.7159
-39.0098
-45.4159
-45.1434
-44.8638
-44.5763
-44.2793
-43.9707
-43.6477
-43.3081
-42.9497
-42.5714
-42.1729
-41.7551
-41.3197
-40.8693
-40.4067
-39.9348
-39.4568
-38.9758
-38.4946
-38.0165
-37.5446
-37.0821
-36.632
-36.1971
-35.78
-35.3826
-35.0066
-34.653
-34.3226
-34.0155
-33.7317
-33.4706
-33.2312
-33.0124
-32.8127
-32.6308
-32.4652
-32.3146
-32.1779
-32.0538
-31.9411
-31.8386
-31.7451
-31.6596
-31.5815
-31.5103
-31.4466
-31.391
-31.3448
-31.3097
-31.287
-31.2784
-31.2849
-31.3076
-31.347
-31.4034
-31.4768
-31.5669
-31.6729
-31.7939
-31.9288
-32.0763
-32.2353
-32.4047
-32.5838
-32.7719
-32.9685
-33.173
-33.3848
-33.6033
-33.8279
-34.0582
-34.2939
-34.5348
-34.7809
-35.0324
-35.2893
-35.5515
-35.8188
-36.0908
-36.3676
-36.6488
-36.9345
-37.2247
-37.5192
-37.8175
-38.1188
-38.4216
-38.7241
-39.0241
-45.452
-45.1799
-44.9033
-44.6215
-44.332
-44.0319
-43.7171
-43.3841
-43.0295
-42.6516
-42.2499
-41.8257
-41.3813
-40.92
-40.4454
-39.9611
-39.4705
-38.9766
-38.4824
-37.9913
-37.5065
-37.0316
-36.57
-36.1251
-35.6996
-35.2956
-34.9148
-34.5582
-34.2265
-33.9198
-33.6379
-33.3801
-33.1452
-32.9316
-32.7375
-32.5612
-32.401
-32.2556
-32.1239
-32.0047
-31.8968
-31.7987
-31.7088
-31.6256
-31.5481
-31.4758
-31.409
-31.349
-31.2976
-31.2567
-31.2287
-31.2154
-31.2183
-31.2386
-31.2768
-31.3332
-31.4079
-31.5004
-31.6099
-31.735
-31.8744
-32.0262
-32.1892
-32.362
-32.5441
-32.7348
-32.9338
-33.1407
-33.3549
-33.5756
-33.802
-34.0335
-34.2698
-34.5109
-34.7571
-35.0088
-35.2661
-35.5289
-35.797
-36.0699
-36.3473
-36.6291
-36.9157
-37.2074
-37.5045
-37.8069
-38.114
-38.4242
-38.7356
-39.0452
-45.495
-45.2229
-44.9507
-44.6776
-44.4004
-44.1142
-43.8131
-43.4911
-43.1432
-42.7663
-42.3598
-41.9256
-41.4674
-40.99
-40.4984
-39.9969
-39.4891
-38.9779
-38.4663
-37.9572
-37.4545
-36.9621
-36.4845
-36.0256
-35.5885
-35.1756
-34.7885
-34.428
-34.0946
-33.7886
-33.5098
-33.2571
-33.029
-32.8232
-32.6372
-32.4687
-32.3158
-32.1773
-32.0523
-31.9399
-31.8388
-31.7473
-31.6631
-31.5838
-31.5075
-31.4335
-31.3621
-31.2951
-31.2352
-31.1856
-31.1495
-31.1294
-31.1271
-31.1439
-31.1804
-31.2369
-31.3135
-31.4097
-31.5244
-31.6559
-31.8019
-31.9602
-32.1287
-32.3062
-32.4918
-32.6856
-32.8877
-33.0979
-33.3155
-33.5395
-33.7685
-34.0016
-34.2385
-34.4794
-34.7252
-34.9768
-35.2346
-35.4985
-35.768
-36.0421
-36.3202
-36.6023
-36.8891
-37.1818
-37.4816
-37.7891
-38.1041
-38.4248
-38.7488
-39.0725
-45.5394
-45.2659
-44.9996
-44.7397
-44.4817
-44.2182
-43.9395
-43.6358
-43.2988
-42.9237
-42.5098
-42.0602
-41.5814
-41.0809
-40.5659
-40.042
-39.5127
-38.9804
-38.4467
-37.9145
-37.3877
-36.8718
-36.3724
-35.8948
-35.4429
-35.019
-34.6242
-34.2589
-33.9237
-33.6188
-33.3443
-33.0991
-32.881
-32.6866
-32.512
-32.354
-32.2103
-32.08
-31.9629
-31.859
-31.7674
-31.6858
-31.6106
-31.5378
-31.4641
-31.3878
-31.3092
-31.2313
-31.1583
-31.0954
-31.0474
-31.0178
-31.0087
-31.0211
-31.0554
-31.112
-31.1911
-31.2924
-31.4148
-31.5558
-31.7119
-31.8795
-32.0556
-32.2384
-32.4277
-32.6245
-32.8299
-33.0442
-33.2669
-33.4959
-33.7289
-33.9642
-34.2012
-34.4407
-34.6848
-34.9354
-35.1939
-35.4599
-35.7319
-36.0081
-36.2869
-36.5682
-36.8535
-37.1455
-37.4471
-37.7602
-38.0852
-38.4202
-38.7618
-39.1053
-45.5765
-45.2987
-45.0396
-44.7991
-44.5713
-44.3441
-44.1021
-43.8284
-43.5096
-43.1374
-42.7112
-42.2373
-41.7269
-41.1928
-40.6464
-40.095
-39.5413
-38.985
-38.4254
-37.8641
-37.3057
-36.7579
-36.2293
-35.7274
-35.2573
-34.8208
-34.4176
-34.0471
-33.7094
-33.4057
-33.1369
-32.9026
-32.6993
-32.5217
-32.3634
-32.2191
-32.086
-31.9639
-31.8548
-31.7608
-31.682
-31.6154
-31.555
-31.4936
-31.425
-31.3455
-31.2558
-31.1605
-31.0671
-30.9842
-30.9191
-30.8769
-30.8595
-30.8668
-30.8985
-30.9548
-31.0367
-31.145
-31.2786
-31.4339
-31.6054
-31.7867
-31.9728
-32.1612
-32.3529
-32.551
-32.7589
-32.9786
-33.209
-33.4463
-33.686
-33.9242
-34.16
-34.3953
-34.6346
-34.8826
-35.142
-35.4121
-35.6897
-35.97
-36.2497
-36.528
-36.8079
-37.0949
-37.3954
-37.7138
-38.0514
-38.4057
-38.7716
-39.1425
-45.5937
-45.3047
-45.0529
-44.8406
-44.6599
-44.4919
-44.3102
-44.0865
-43.7973
-43.4291
-42.9816
-42.4672
-41.9066
-41.3227
-40.7344
-40.1516
-39.5738
-38.9945
-38.4069
-37.8097
-37.2089
-36.6168
-36.0479
-35.5147
-35.0237
-34.575
-34.1645
-33.7884
-33.4465
-33.1425
-32.8805
-32.6616
-32.4811
-32.3294
-32.195
-32.0686
-31.9461
-31.8295
-31.7255
-31.6412
-31.5795
-31.5364
-31.5011
-31.4603
-31.4017
-31.3183
-31.2108
-31.0873
-30.9612
-30.8474
-30.7583
-30.7006
-30.6748
-30.6778
-30.7064
-30.7609
-30.8446
-30.9612
-31.1111
-31.289
-31.4848
-31.6871
-31.8865
-32.0794
-32.2689
-32.4631
-32.671
-32.8975
-33.1408
-33.3933
-33.6449
-33.8876
-34.1191
-34.3439
-34.5718
-34.8132
-35.0742
-35.3534
-35.643
-35.9326
-36.2141
-36.4852
-36.7515
-37.0246
-37.3174
-37.6394
-37.993
-38.3739
-38.7738
-39.1829
-45.5714
-45.2571
-45.0094
-44.8367
-44.7302
-44.6595
-44.5789
-44.4391
-44.1989
-43.8351
-43.3486
-42.764
-42.12
-41.4592
-40.8149
-40.2011
-39.6089
-39.0163
-38.4027
-37.7607
-37.0999
-36.4424
-35.8155
-35.2413
-34.7297
-34.2746
-33.862
-33.4806
-33.1296
-32.8191
-32.5623
-32.3656
-32.2218
-32.1124
-32.0154
-31.913
-31.798
-31.6772
-31.568
-31.4893
-31.4508
-31.4463
-31.4556
-31.4528
-31.4144
-31.3262
-31.1891
-31.0181
-30.8378
-30.6754
-30.5524
-30.4786
-30.4491
-30.4518
-30.4772
-30.5251
-30.6052
-30.7295
-30.9033
-31.1182
-31.3551
-31.5916
-31.8096
-32.0025
-32.1781
-32.3556
-32.5562
-32.7921
-33.0595
-33.3414
-33.6163
-33.867
-34.0876
-34.2878
-34.4892
-34.7153
-34.9799
-35.2793
-35.5959
-35.9066
-36.193
-36.4491
-36.6851
-36.9252
-37.1969
-37.5191
-37.8948
-38.3141
-38.7625
-39.2251
-45.4815
-45.1137
-44.8581
-44.7378
-44.7493
-44.8414
-44.9329
-44.9365
-44.7788
-44.4177
-43.8573
-43.1462
-42.358
-41.5722
-40.8517
-40.2196
-39.6447
-39.0685
-38.4396
-37.7391
-36.9862
-36.2246
-35.5072
-34.8782
-34.3544
-33.9133
-33.515
-33.1293
-32.7547
-32.4186
-32.1578
-31.994
-31.9132
-31.8779
-31.8439
-31.7756
-31.6587
-31.5087
-31.3669
-31.2796
-31.2737
-31.3364
-31.4278
-31.4971
-31.4988
-31.405
-31.2164
-30.9624
-30.6889
-30.4466
-30.2762
-30.1929
-30.1771
-30.1936
-30.2157
-30.2432
-30.302
-30.4268
-30.6365
-30.9158
-31.2262
-31.5226
-31.7689
-31.9506
-32.0846
-32.2146
-32.3904
-32.6414
-32.957
-33.2995
-33.6226
-33.8893
-34.0854
-34.23
-34.3708
-34.5618
-34.8353
-35.1804
-35.5569
-35.9153
-36.2155
-36.4413
-36.6125
-36.78
-37.0033
-37.3216
-37.7331
-38.2122
-38.7302
-39.2676
-45.282
-44.809
-44.5119
-44.4491
-44.6525
-45.0243
-45.4138
-45.6662
-45.6517
-45.2875
-44.5834
-43.6394
-42.5927
-41.5914
-40.7613
-40.1561
-39.6827
-39.1971
-38.5796
-37.7932
-36.8853
-35.9433
-35.0719
-34.3639
-33.8602
-33.4905
-33.1502
-32.7623
-32.3247
-31.9097
-31.6142
-31.5029
-31.5395
-31.6419
-31.7219
-31.7087
-31.5673
-31.3288
-31.0874
-30.9533
-30.9977
-31.1857
-31.4319
-31.639
-31.7211
-31.6205
-31.3383
-30.9348
-30.4954
-30.1146
-29.8744
-29.8102
-29.8588
-29.9273
-29.9465
-29.9162
-29.9042
-30.0019
-30.2694
-30.6687
-31.1174
-31.5257
-31.8211
-31.9674
-31.9968
-32.0078
-32.1161
-32.3974
-32.8159
-33.2852
-33.7099
-34.0132
-34.1572
-34.1773
-34.1798
-34.2893
-34.5873
-35.0361
-35.5436
-36.0076
-36.3446
-36.5119
-36.5447
-36.5542
-36.6727
-36.9895
-37.4741
-38.0537
-38.6699
-39.306
-44.9077
-44.251
-43.8286
-43.7771
-44.3132
-45.182
-46.0925
-46.7804
-47.0282
-46.647
-45.655
-44.2809
-42.762
-41.3644
-40.3475
-39.9029
-39.7384
-39.5158
-38.9631
-38.0228
-36.8337
-35.5606
-34.4015
-33.5558
-33.1735
-33.0257
-32.8544
-32.4672
-31.8626
-31.2291
-30.8055
-30.7994
-31.0711
-31.4386
-31.7344
-31.8268
-31.6163
-31.1532
-30.6538
-30.3702
-30.5155
-30.9514
-31.4925
-31.9611
-32.2071
-32.0976
-31.6354
-30.9593
-30.2177
-29.5802
-29.2198
-29.265
-29.5123
-29.7321
-29.749
-29.5629
-29.3485
-29.3325
-29.7126
-30.3506
-31.067
-31.6913
-32.0882
-32.1525
-31.9355
-31.6607
-31.5927
-31.9558
-32.6017
-33.335
-33.9718
-34.3665
-34.4072
-34.1497
-33.8345
-33.7451
-34.1217
-34.807
-35.5927
-36.2823
-36.7179
-36.7758
-36.5101
-36.1711
-36.0559
-36.4154
-37.0778
-37.842
-38.5805
-39.3192
-44.2181
-43.3557
-42.6114
-42.2589
-43.4949
-45.2797
-47.0918
-48.5285
-49.3108
-48.8863
-47.2772
-45.1314
-42.757
-40.5894
-39.11
-39.2466
-39.8781
-40.3102
-39.9049
-38.6112
-36.9034
-35.0143
-33.2803
-32.0808
-32.1493
-32.5952
-32.8696
-32.4858
-31.4426
-30.2467
-29.3963
-29.6961
-30.4655
-31.3388
-32.0403
-32.3816
-32.0297
-31.0305
-29.9098
-29.17
-29.6155
-30.566
-31.6582
-32.6043
-33.2055
-33.083
-32.241
-31.0788
-29.7905
-28.6473
-27.9814
-28.4292
-29.2058
-29.8292
-29.8439
-29.2509
-28.5071
-28.0932
-28.7847
-29.9199
-31.1491
-32.1847
-32.8342
-32.7426
-31.9575
-31.0159
-30.4486
-31.1068
-32.2614
-33.5234
-34.5823
-35.2292
-35.0864
-34.2049
-33.1636
-32.5294
-33.2113
-34.4329
-35.7798
-36.9222
-37.6347
-37.5052
-36.5806
-35.4652
-34.7548
-35.4046
-36.5344
-37.6669
-38.4905
-39.1983
-42.6859
-42.2905
-40.8299
-38.4536
-41.8866
-45.338
-48.6322
-51.2189
-53.3316
-52.8317
-49.6724
-46.3111
-42.4543
-38.8235
-35.5458
-37.8778
-40.3051
-42.311
-42.1262
-39.7963
-37.2344
-34.2449
-31.3895
-28.7802
-30.5821
-32.4119
-33.833
-33.4542
-31.2425
-28.7671
-26.3311
-27.917
-29.7107
-31.4866
-32.8655
-33.935
-33.3754
-31.083
-28.6177
-26.2633
-27.9885
-29.9771
-32.0346
-33.7444
-35.2463
-35.1051
-33.3079
-31.38
-29.1547
-27.0271
-25.1394
-27.1201
-29.12
-30.803
-30.8143
-29.1561
-27.1909
-25.2622
-27.2176
-29.3542
-31.5098
-33.2341
-34.6473
-34.3315
-32.2048
-29.8319
-27.5397
-29.543
-31.7663
-34.0042
-35.7857
-37.2288
-36.8292
-34.4901
-31.9064
-29.4185
-31.5233
-33.8781
-36.2612
-38.1806
-39.7635
-39.3793
-36.9253
-34.1758
-31.4949
-33.7023
-35.9866
-37.9361
-38.5664
-38.3882
-37.4292
-42.7594
-40.3672
-26.2831
-40.2516
-45.6231
-51.1913
-54.5922
-61.1147
-60.607
-52.3586
-48.2049
-41.8262
-36.5496
-23.9036
-36.3723
-41.3393
-47.4666
-47.4368
-41.3158
-38.1815
-33.2829
-29.1446
-19.128
-28.9752
-32.8174
-37.3887
-37.0626
-31.4227
-27.2312
-17.4748
-25.8389
-28.982
-32.2067
-34.1366
-37.8347
-37.217
-31.3851
-27.1662
-17.4825
-25.9826
-29.2896
-32.912
-35.1844
-39.6536
-39.5122
-34.5636
-32.11
-28.3785
-25.0618
-16.7273
-25.7836
-29.491
-34.1846
-34.1886
-29.5039
-25.8222
-16.838
-25.39
-28.7613
-32.4917
-34.7316
-38.9501
-38.5282
-32.8065
-28.5316
-18.4453
-27.6621
-31.2503
-35.1418
-37.4765
-41.8814
-41.3646
-35.1271
-30.511
-19.6936
-29.4751
-33.282
-37.4101
-39.9232
-44.7242
-44.2334
-37.695
-32.7873
-21.1953
-31.8886
-35.9205
-40.1045
-39.8054
-33.9627
-39.3159
-39.6474
-39.9642
-40.2631
-40.5413
-40.7965
-41.0273
-41.2325
-41.4117
-41.5647
-41.6916
-41.7925
-41.8679
-41.918
-41.943
-39.3265
-39.6616
-39.9817
-40.2834
-40.5637
-40.8205
-41.0523
-41.258
-41.4374
-41.5903
-41.7169
-41.8176
-41.8927
-41.9426
-41.9674
-39.3478
-39.6903
-40.0171
-40.3244
-40.6091
-40.869
-41.1027
-41.3094
-41.489
-41.6416
-41.7677
-41.8677
-41.9422
-41.9916
-42.0162
-39.38
-39.7341
-40.0714
-40.3874
-40.6787
-40.9432
-41.1796
-41.3874
-41.5671
-41.719
-41.844
-41.9429
-42.0163
-42.0649
-42.0891
-39.4233
-39.7944
-40.1465
-40.4745
-40.7747
-41.0449
-41.2843
-41.4932
-41.6723
-41.8228
-41.9459
-42.0429
-42.1147
-42.162
-42.1856
-39.4786
-39.8729
-40.2452
-40.5889
-40.9001
-41.1768
-41.4192
-41.6281
-41.8056
-41.9534
-42.0735
-42.1675
-42.2368
-42.2825
-42.3051
-39.5468
-39.9729
-40.3719
-40.7355
-41.0594
-41.3426
-41.5867
-41.7941
-41.9679
-42.1112
-42.2266
-42.3163
-42.3822
-42.4254
-42.4468
-39.6303
-40.0997
-40.5334
-40.9211
-41.2587
-41.5472
-41.7903
-41.993
-42.1602
-42.2962
-42.4047
-42.4885
-42.5496
-42.5896
-42.6093
-39.7327
-40.2616
-40.7406
-41.1565
-41.5069
-41.7966
-42.0338
-42.2269
-42.3831
-42.5083
-42.607
-42.6827
-42.7376
-42.7734
-42.791
-39.8609
-40.4731
-41.0106
-41.457
-41.8153
-42.0983
-42.3212
-42.4972
-42.6363
-42.7461
-42.8318
-42.897
-42.9441
-42.9748
-42.9899
-40.0248
-40.7589
-41.3712
-41.8452
-42.1988
-42.4601
-42.6554
-42.8038
-42.9184
-43.0075
-43.0764
-43.1287
-43.1665
-43.1911
-43.2033
-40.2382
-41.1659
-41.8696
-42.3529
-42.6737
-42.888
-43.0364
-43.1442
-43.2255
-43.2883
-43.3371
-43.3744
-43.4016
-43.4194
-43.4282
-40.52
-41.7958
-42.5878
-43.0215
-43.2532
-43.381
-43.4582
-43.5108
-43.5507
-43.5826
-43.6087
-43.6296
-43.6454
-43.6559
-43.6613
-40.9494
-42.9089
-43.6656
-43.8922
-43.935
-43.9238
-43.9044
-43.8902
-43.8834
-43.8824
-43.885
-43.8892
-43.8937
-43.8972
-43.8991
-42.2176
-45.2231
-45.2725
-44.9472
-44.6688
-44.4741
-44.3452
-44.2622
-44.21
-44.1779
-44.1589
-44.1481
-44.1423
-44.1394
-44.1382
-50.3545
-50.3638
-50.3831
-50.4137
-50.4579
-50.5194
-50.6038
-50.7202
-50.8837
-51.1214
-51.4873
-52.1058
-53.3234
-56.3369
-66.1516
-50.5286
-50.5406
-50.5655
-50.6048
-50.6614
-50.7398
-50.8468
-50.9938
-51.199
-51.4951
-51.9441
-52.6745
-53.9774
-56.5451
-61.9099
-50.6943
-50.7085
-50.7378
-50.7838
-50.8497
-50.9402
-51.0622
-51.2269
-51.4513
-51.7628
-52.2054
-52.8456
-53.7531
-54.8108
-54.611
-50.8502
-50.866
-50.8983
-50.9491
-51.021
-51.1186
-51.248
-51.4185
-51.643
-51.9393
-52.3294
-52.8312
-53.4244
-53.9498
-53.9567
-50.9951
-51.0118
-51.0461
-51.0995
-51.1745
-51.2748
-51.4053
-51.5726
-51.7849
-52.0508
-52.3759
-52.7531
-53.1427
-53.4488
-53.5852
-51.1282
-51.1455
-51.1806
-51.2349
-51.3104
-51.4099
-51.5369
-51.6955
-51.8896
-52.1211
-52.386
-52.6665
-52.9191
-53.0655
-53.0313
-51.2494
-51.2666
-51.3017
-51.3555
-51.4297
-51.526
-51.6467
-51.7937
-51.9682
-52.1681
-52.3852
-52.5993
-52.7691
-52.8078
-52.4541
-51.3584
-51.3754
-51.4097
-51.462
-51.5334
-51.625
-51.738
-51.873
-52.0292
-52.2031
-52.3862
-52.5628
-52.7103
-52.8223
-53.0864
-51.4557
-51.4721
-51.5051
-51.5552
-51.6231
-51.7092
-51.8141
-51.9375
-52.0779
-52.2317
-52.3918
-52.5464
-52.6762
-52.7312
-52.4483
-51.5415
-51.5571
-51.5886
-51.6361
-51.6999
-51.7803
-51.8773
-51.9902
-52.1173
-52.2558
-52.4009
-52.5471
-52.6941
-52.8747
-53.3371
-51.6163
-51.6311
-51.6608
-51.7055
-51.7652
-51.8399
-51.9294
-52.0329
-52.1489
-52.2753
-52.4091
-52.5473
-52.6885
-52.8224
-52.8254
-51.6808
-51.6947
-51.7225
-51.7643
-51.8199
-51.8892
-51.9718
-52.0669
-52.1733
-52.2896
-52.4139
-52.5455
-52.688
-52.8608
-53.1754
-51.7355
-51.7485
-51.7745
-51.8134
-51.8651
-51.9293
-52.0055
-52.093
-52.1909
-52.2981
-52.4134
-52.5359
-52.6664
-52.8007
-52.8862
-51.7811
-51.7932
-51.8174
-51.8536
-51.9015
-51.9609
-52.0312
-52.1119
-52.2021
-52.301
-52.4075
-52.5209
-52.6422
-52.7743
-52.9406
-51.8181
-51.8294
-51.8519
-51.8855
-51.9299
-51.9848
-52.0498
-52.1242
-52.2073
-52.2984
-52.3964
-52.5005
-52.6104
-52.7241
-52.8288
-51.8472
-51.8577
-51.8786
-51.9098
-51.9509
-52.0017
-52.0617
-52.1304
-52.207
-52.2908
-52.3809
-52.4759
-52.5759
-52.6798
-52.7912
-51.8689
-51.8786
-51.8981
-51.927
-51.9651
-52.0122
-52.0676
-52.131
-52.2017
-52.2789
-52.3614
-52.448
-52.5386
-52.6304
-52.6967
-51.8837
-51.8927
-51.9108
-51.9376
-51.973
-52.0166
-52.068
-52.1267
-52.192
-52.263
-52.3386
-52.4173
-52.5004
-52.5983
-52.7854
-51.892
-51.9004
-51.9172
-51.9422
-51.9751
-52.0156
-52.0633
-52.1177
-52.1782
-52.2439
-52.3131
-52.3835
-52.4519
-52.5042
-52.4525
-51.8944
-51.9022
-51.9179
-51.9411
-51.9717
-52.0094
-52.0539
-52.1046
-52.161
-52.2221
-52.2864
-52.3511
-52.4146
-52.482
-52.6386
-51.8911
-51.8984
-51.913
-51.9347
-51.9633
-51.9985
-52.04
-52.0875
-52.1404
-52.198
-52.2588
-52.3196
-52.3744
-52.3976
-52.2668
-51.8826
-51.8895
-51.9031
-51.9234
-51.9502
-51.9831
-52.022
-52.0666
-52.1166
-52.1716
-52.2305
-52.2922
-52.3563
-52.42
-52.4746
-51.8692
-51.8756
-51.8884
-51.9074
-51.9325
-51.9635
-52.0001
-52.0421
-52.0895
-52.1421
-52.1998
-52.2632
-52.3383
-52.4484
-52.7225
-51.8511
-51.8571
-51.8692
-51.8871
-51.9107
-51.9398
-51.9742
-52.0139
-52.0587
-52.1089
-52.1644
-52.2261
-52.296
-52.3626
-52.2948
-51.8286
-51.8343
-51.8457
-51.8625
-51.8848
-51.9122
-51.9447
-51.9821
-52.0244
-52.0717
-52.1241
-52.1832
-52.256
-52.3698
-52.6902
-51.802
-51.8074
-51.8181
-51.8341
-51.8551
-51.8811
-51.9117
-51.947
-51.9866
-52.0306
-52.0786
-52.1306
-52.1876
-52.2333
-52.0952
-51.7714
-51.7765
-51.7867
-51.8019
-51.8219
-51.8465
-51.8755
-51.9088
-51.9459
-51.9866
-52.0296
-52.0745
-52.1271
-52.224
-52.6221
-51.737
-51.7419
-51.7517
-51.7662
-51.7852
-51.8087
-51.8363
-51.8679
-51.9029
-51.9405
-51.9786
-52.013
-52.0357
-52.0052
-51.6582
-51.6991
-51.7038
-51.7131
-51.727
-51.7453
-51.7678
-51.7944
-51.8247
-51.8582
-51.8939
-51.9292
-51.9597
-51.9813
-52.0057
-52.226
-51.6576
-51.6621
-51.6712
-51.6846
-51.7023
-51.724
-51.7498
-51.7792
-51.812
-51.8472
-51.8825
-51.9124
-51.9249
-51.8699
-51.503
-51.6127
-51.6171
-51.6259
-51.6389
-51.6561
-51.6774
-51.7025
-51.7315
-51.7642
-51.8003
-51.8385
-51.8771
-51.9155
-51.9502
-51.9747
-51.5646
-51.5689
-51.5774
-51.5902
-51.607
-51.6278
-51.6525
-51.6812
-51.7141
-51.7515
-51.7935
-51.842
-51.9085
-52.0373
-52.4664
-51.5132
-51.5174
-51.5258
-51.5383
-51.5548
-51.5752
-51.5997
-51.6282
-51.6611
-51.6991
-51.7429
-51.7944
-51.8581
-51.9154
-51.7449
-51.4586
-51.4628
-51.4711
-51.4834
-51.4996
-51.5198
-51.5439
-51.5721
-51.6047
-51.6423
-51.6859
-51.7384
-51.8122
-51.9512
-52.4225
-51.4009
-51.405
-51.4132
-51.4254
-51.4415
-51.4614
-51.4852
-51.513
-51.5448
-51.5811
-51.6218
-51.6677
-51.7209
-51.7559
-51.5026
-51.3401
-51.3442
-51.3523
-51.3644
-51.3804
-51.4002
-51.4238
-51.451
-51.482
-51.5163
-51.553
-51.5918
-51.6422
-51.7604
-52.3383
-51.2761
-51.2802
-51.2883
-51.3004
-51.3164
-51.3362
-51.3597
-51.3867
-51.4169
-51.4495
-51.4817
-51.5079
-51.5165
-51.4451
-50.8975
-51.209
-51.2131
-51.2213
-51.2335
-51.2495
-51.2694
-51.293
-51.3201
-51.3504
-51.3826
-51.4133
-51.4363
-51.4461
-51.46
-51.7614
-51.1388
-51.143
-51.1512
-51.1635
-51.1797
-51.1998
-51.2238
-51.2515
-51.2827
-51.3163
-51.3491
-51.3738
-51.3731
-51.2745
-50.7246
-51.0654
-51.0696
-51.0779
-51.0904
-51.1069
-51.1274
-51.1519
-51.1805
-51.2134
-51.2501
-51.2894
-51.3288
-51.3678
-51.4021
-51.4236
-50.9888
-50.9931
-51.0015
-51.0141
-51.0309
-51.0519
-51.0771
-51.1068
-51.1415
-51.1818
-51.2283
-51.2842
-51.3659
-51.5378
-52.1416
-50.9089
-50.9132
-50.9218
-50.9347
-50.9518
-50.9732
-50.999
-51.0297
-51.0658
-51.1086
-51.1595
-51.2216
-51.3014
-51.3731
-51.122
-50.8257
-50.8301
-50.8389
-50.852
-50.8694
-50.8912
-50.9175
-50.9488
-50.9857
-51.0294
-51.0816
-51.1467
-51.2425
-51.4318
-52.0931
-50.7392
-50.7436
-50.7525
-50.7659
-50.7836
-50.8058
-50.8325
-50.8641
-50.901
-50.9439
-50.9933
-51.0505
-51.1187
-51.1623
-50.7999
-50.6492
-50.6537
-50.6628
-50.6764
-50.6944
-50.717
-50.744
-50.7758
-50.8123
-50.8534
-50.8982
-50.9465
-51.012
-51.1741
-51.987
-50.5556
-50.5603
-50.5695
-50.5834
-50.6018
-50.6247
-50.6522
-50.6843
-50.7205
-50.76
-50.7992
-50.8307
-50.838
-50.7335
-49.958
-50.4585
-50.4633
-50.4727
-50.4868
-50.5056
-50.5291
-50.5572
-50.5899
-50.6267
-50.6662
-50.7041
-50.7318
-50.7417
-50.7581
-51.1801
-50.3578
-50.3626
-50.3723
-50.3867
-50.4059
-50.43
-50.4589
-50.4927
-50.5312
-50.5732
-50.6145
-50.6452
-50.641
-50.5002
-49.7257
-50.2533
-50.2582
-50.2681
-50.2828
-50.3025
-50.3272
-50.3571
-50.3924
-50.4334
-50.4801
-50.5308
-50.5827
-50.635
-50.6818
-50.7123
-50.1451
-50.1501
-50.1601
-50.1751
-50.1952
-50.2205
-50.2514
-50.2882
-50.3319
-50.3837
-50.4447
-50.5201
-50.6329
-50.874
-51.7249
-50.033
-50.038
-50.0482
-50.0635
-50.0839
-50.1098
-50.1414
-50.1794
-50.2251
-50.2802
-50.3473
-50.4313
-50.5416
-50.6421
-50.2901
-49.9169
-49.9221
-49.9324
-49.9478
-49.9685
-49.9947
-50.0268
-50.0654
-50.1118
-50.1678
-50.2364
-50.3245
-50.4571
-50.7236
-51.6589
-49.797
-49.8021
-49.8125
-49.8281
-49.849
-49.8754
-49.9076
-49.9461
-49.992
-50.0463
-50.1103
-50.1866
-50.2798
-50.3399
-49.8288
-49.673
-49.6782
-49.6886
-49.7043
-49.7252
-49.7516
-49.7838
-49.8219
-49.8665
-49.9175
-49.9741
-50.037
-50.1253
-50.3522
-51.5022
-49.545
-49.5502
-49.5606
-49.5763
-49.5973
-49.6237
-49.6557
-49.6934
-49.7367
-49.7842
-49.8318
-49.8698
-49.8745
-49.7227
-48.624
-49.4129
-49.4181
-49.4285
-49.4442
-49.4652
-49.4916
-49.5235
-49.5612
-49.6041
-49.6504
-49.6946
-49.7256
-49.7325
-49.7501
-50.3434
-49.2769
-49.282
-49.2924
-49.308
-49.3289
-49.3553
-49.3874
-49.4254
-49.4692
-49.5175
-49.5648
-49.5981
-49.5831
-49.3769
-48.2787
-49.1368
-49.1419
-49.1522
-49.1676
-49.1883
-49.2147
-49.247
-49.2857
-49.3315
-49.3845
-49.4431
-49.5041
-49.5664
-49.6223
-49.6583
-48.9928
-48.9978
-49.0079
-49.023
-49.0435
-49.0696
-49.1019
-49.1413
-49.189
-49.2471
-49.318
-49.4094
-49.554
-49.8806
-51.0684
-48.8448
-48.8497
-48.8595
-48.8744
-48.8944
-48.92
-48.9519
-48.9911
-49.0396
-49.1001
-49.1769
-49.2777
-49.4153
-49.54
-49.032
-48.6931
-48.6978
-48.7073
-48.7216
-48.7409
-48.7657
-48.7966
-48.8348
-48.882
-48.9413
-49.0172
-49.1204
-49.2857
-49.638
-50.9253
-48.5376
-48.5421
-48.5511
-48.5648
-48.5833
-48.6069
-48.6362
-48.6722
-48.7162
-48.7702
-48.8367
-48.9199
-49.0261
-49.0859
-48.3514
-48.3785
-48.3828
-48.3913
-48.4042
-48.4216
-48.4438
-48.4711
-48.5042
-48.5437
-48.59
-48.6427
-48.7035
-48.7988
-49.0846
-50.6399
-48.2161
-48.22
-48.228
-48.24
-48.2562
-48.2767
-48.3019
-48.3319
-48.3666
-48.4047
-48.441
-48.4632
-48.4393
-48.2009
-46.6666
-48.0504
-48.0541
-48.0614
-48.0724
-48.0873
-48.1062
-48.1292
-48.1564
-48.1875
-48.2201
-48.2473
-48.255
-48.2286
-48.2161
-48.9813
-47.8817
-47.885
-47.8917
-47.9017
-47.9152
-47.9324
-47.9534
-47.9785
-48.0074
-48.0385
-48.0652
-48.0703
-48.0085
-47.6904
-46.1821
-47.7103
-47.7132
-47.7192
-47.7281
-47.7401
-47.7555
-47.7746
-47.7979
-47.8262
-47.8595
-47.896
-47.9322
-47.9663
-47.9902
-47.9927
-47.5363
-47.5389
-47.544
-47.5518
-47.5623
-47.5758
-47.5928
-47.6142
-47.6416
-47.6774
-47.7252
-47.7954
-47.9312
-48.3039
-49.8111
-47.3601
-47.3622
-47.3666
-47.3731
-47.3819
-47.3933
-47.4077
-47.4264
-47.4515
-47.4864
-47.5368
-47.6132
-47.7317
-47.8288
-47.1045
-47.1818
-47.1836
-47.1871
-47.1924
-47.1993
-47.2082
-47.2196
-47.2344
-47.2547
-47.2841
-47.3284
-47.4016
-47.5472
-47.9233
-49.4786
-47.0019
-47.0033
-47.006
-47.0099
-47.015
-47.0212
-47.0289
-47.0387
-47.0518
-47.0706
-47.098
-47.1397
-47.2025
-47.1979
-46.1905
-46.8205
-46.8215
-46.8234
-46.8261
-46.8293
-46.8328
-46.8366
-46.8407
-46.8454
-46.8505
-46.8557
-46.8632
-46.9046
-47.168
-48.9575
-46.638
-46.6387
-46.6399
-46.6414
-46.6429
-46.6439
-46.644
-46.6426
-46.6387
-46.6298
-46.6095
-46.5632
-46.4527
-46.0773
-44.1463
-46.4545
-46.4549
-46.4556
-46.4562
-46.4563
-46.4552
-46.4523
-46.4464
-46.4357
-46.4164
-46.3794
-46.3078
-46.1848
-46.0658
-46.8274
-46.2703
-46.2705
-46.2709
-46.2709
-46.27
-46.2676
-46.2626
-46.2537
-46.239
-46.2146
-46.1711
-46.088
-45.9143
-45.4417
-43.638
-46.0853
-46.0856
-46.0858
-46.0856
-46.0844
-46.0813
-46.0753
-46.0652
-46.0494
-46.0253
-45.9882
-45.9313
-45.8512
-45.7412
-45.608
-45.8997
-45.9001
-45.9005
-45.9006
-45.8996
-45.8967
-45.8908
-45.8808
-45.8656
-45.8444
-45.817
-45.7907
-45.809
-46.0556
-47.4919
-45.7134
-45.714
-45.7149
-45.7157
-45.7156
-45.7138
-45.7091
-45.7003
-45.6864
-45.667
-45.6428
-45.6192
-45.6082
-45.543
-44.619
-45.5263
-45.5272
-45.5289
-45.5309
-45.5324
-45.5326
-45.53
-45.5234
-45.5112
-45.4922
-45.4661
-45.4391
-45.4451
-45.6257
-46.8713
-45.3379
-45.3394
-45.3422
-45.3459
-45.3497
-45.3528
-45.3537
-45.3506
-45.341
-45.3216
-45.288
-45.236
-45.1607
-44.968
-43.8109
-45.1481
-45.1502
-45.1543
-45.1601
-45.1671
-45.1742
-45.1801
-45.1825
-45.1778
-45.1602
-45.1206
-45.0492
-44.9577
-44.9789
-46.1374
-44.9562
-44.9591
-44.9648
-44.9731
-44.9838
-44.9961
-45.0088
-45.0195
-45.0238
-45.0134
-44.973
-44.8765
-44.6766
-44.1991
-42.4561
-44.7619
-44.7656
-44.7729
-44.784
-44.7988
-44.8173
-44.8387
-44.8611
-44.8802
-44.8867
-44.8623
-44.7755
-44.5883
-44.2971
-44.3894
-44.5646
-44.569
-44.5778
-44.5916
-44.6109
-44.6362
-44.6678
-44.7052
-44.7456
-44.7809
-44.7927
-44.7443
-44.5721
-44.128
-42.8914
-44.3638
-44.3687
-44.3789
-44.395
-44.4183
-44.4503
-44.4928
-44.5475
-44.6146
-44.6908
-44.7627
-44.7991
-44.7449
-44.5082
-44.0426
-44.1591
-44.1643
-44.1752
-44.1929
-44.2192
-44.2568
-44.3093
-44.3811
-44.4777
-44.6031
-44.7551
-44.9168
-45.0445
-45.0464
-44.8768
-43.9503
-43.9554
-43.9662
-43.9843
-44.0119
-44.0527
-44.1121
-44.1978
-44.321
-44.4961
-44.7387
-45.0582
-45.4313
-45.7028
-45.4841
-43.7375
-43.742
-43.7518
-43.7685
-43.7949
-43.8353
-43.8964
-43.9887
-44.1286
-44.3415
-44.6667
-45.1624
-45.8889
-46.6986
-46.0611
-43.521
-43.5245
-43.5321
-43.5456
-43.5677
-43.6031
-43.659
-43.7468
-43.8856
-44.1081
-44.474
-45.1064
-46.2888
-48.6985
-53.9705
-43.3018
-43.3036
-43.3078
-43.3161
-43.3309
-43.3564
-43.3991
-43.4696
-43.5848
-43.7744
-44.0943
-44.6685
-45.8365
-48.7098
-57.7783
-59.3199
-50.0533
-47.089
-45.8711
-45.2627
-44.9173
-44.7071
-44.575
-44.4906
-44.4365
-44.402
-44.3802
-44.3668
-44.3593
-44.3558
-55.7981
-50.0669
-47.528
-46.2877
-45.6184
-45.2256
-44.982
-44.8262
-44.7246
-44.6577
-44.6136
-44.5848
-44.5665
-44.5558
-44.5508
-46.8949
-47.8624
-47.0655
-46.3078
-45.7803
-45.4295
-45.1961
-45.0398
-44.9344
-44.8628
-44.8143
-44.7817
-44.7605
-44.7478
-44.7418
-46.693
-46.8822
-46.5761
-46.1678
-45.8177
-45.551
-45.3568
-45.2183
-45.1204
-45.0515
-45.0034
-44.9702
-44.9481
-44.9347
-44.9283
-46.3656
-46.2451
-46.1581
-45.9872
-45.7954
-45.6213
-45.4788
-45.3688
-45.2863
-45.2256
-45.1816
-45.1504
-45.1293
-45.1161
-45.1099
-44.9572
-45.5836
-45.7988
-45.821
-45.7592
-45.6688
-45.5784
-45.5002
-45.4369
-45.3877
-45.3505
-45.3233
-45.3043
-45.2924
-45.2866
-44.2905
-45.2068
-45.5737
-45.7129
-45.7409
-45.7154
-45.6698
-45.6214
-45.5777
-45.5411
-45.512
-45.4899
-45.474
-45.4638
-45.4588
-45.082
-45.2106
-45.5071
-45.6818
-45.7581
-45.7753
-45.7631
-45.7395
-45.7134
-45.6891
-45.6683
-45.6517
-45.6393
-45.6312
-45.6271
-43.7016
-45.0967
-45.5255
-45.7189
-45.8144
-45.8547