/*--------------------------------*- C++ -*----------------------------------*\
| =========                 |                                                 |
| \\      /  F ield         | OpenFOAM: The Open Source CFD Toolbox           |
|  \\    /   O peration     | Version:  5.x                                   |
|   \\  /    A nd           | Web:      www.OpenFOAM.org                      |
|    \\/     M anipulation  |                                                 |
\*---------------------------------------------------------------------------*/
FoamFile
{
    version     2.0;
    format      ascii;
    class       volScalarField;
    location    "2.6";
    object      gradTx;
}
// * * * * * * * * * * * * * * * * * * * * * * * * * * * * * * * * * * * * * //

dimensions      [0 -1 0 1 0 0 0];

internalField   nonuniform List<scalar> 
6300
(
-48.387
-48.359
-48.303
-48.2188
-48.1062
-47.9649
-47.7948
-47.596
-47.3688
-47.1139
-46.8323
-46.5255
-46.1954
-45.8438
-45.4729
-48.4148
-48.3869
-48.3311
-48.2471
-48.1347
-47.9935
-47.8234
-47.6243
-47.3964
-47.1405
-46.8574
-46.5488
-46.2167
-45.8632
-45.4907
-48.4703
-48.4426
-48.3872
-48.3037
-48.1918
-48.0509
-47.8808
-47.6812
-47.4521
-47.194
-46.9079
-46.5956
-46.2592
-45.9016
-45.5256
-48.5532
-48.526
-48.4713
-48.3887
-48.2776
-48.1375
-47.9676
-47.7674
-47.5366
-47.2753
-46.9846
-46.6662
-46.3229
-45.9582
-45.5762
-48.6633
-48.6366
-48.583
-48.5019
-48.3924
-48.2537
-48.0846
-47.8841
-47.6513
-47.3861
-47.0889
-46.7617
-46.4078
-46.032
-45.6402
-48.7999
-48.7741
-48.7221
-48.6432
-48.5364
-48.4002
-48.2329
-48.0329
-47.7985
-47.5286
-47.2232
-46.8838
-46.5145
-46.1217
-45.7142
-48.9621
-48.9375
-48.8879
-48.8124
-48.7096
-48.5775
-48.4138
-48.2159
-47.9809
-47.7065
-47.3912
-47.0358
-46.6446
-46.2261
-45.7932
-49.1486
-49.1258
-49.0796
-49.0088
-48.9118
-48.7862
-48.6288
-48.4358
-48.2027
-47.9251
-47.5991
-47.2236
-46.8019
-46.3446
-45.8709
-49.3579
-49.3373
-49.2955
-49.2313
-49.1426
-49.0266
-48.8793
-48.6956
-48.4689
-48.1918
-47.8566
-47.4575
-46.9947
-46.4794
-45.9391
-49.5875
-49.5698
-49.5337
-49.4779
-49.4005
-49.298
-49.1661
-48.9982
-48.7855
-48.5166
-48.1777
-47.755
-47.2398
-46.6392
-45.9898
-49.8347
-49.8204
-49.7913
-49.7462
-49.6831
-49.5988
-49.4886
-49.3453
-49.1581
-48.9112
-48.5827
-48.1449
-47.5702
-46.8478
-46.0181
-50.096
-50.0857
-50.0648
-50.0322
-49.9866
-49.9253
-49.8442
-49.7363
-49.5902
-49.3872
-49.0967
-48.6718
-48.0481
-47.1638
-46.0314
-50.3674
-50.3615
-50.3495
-50.3312
-50.3056
-50.2715
-50.2263
-50.1652
-50.0791
-49.9506
-49.7453
-49.3973
-48.7865
-47.7278
-46.0746
-50.6444
-50.6431
-50.6405
-50.637
-50.6329
-50.6286
-50.6241
-50.6189
-50.6105
-50.5906
-50.5363
-50.3855
-49.9726
-48.8861
-46.3304
-50.9225
-50.9256
-50.9322
-50.9433
-50.9603
-50.9855
-51.0223
-51.0758
-51.1531
-51.2648
-51.4239
-51.6354
-51.8319
-51.513
-47.7775
-45.1178
-44.782
-44.4347
-44.0753
-43.7032
-43.3174
-42.9165
-42.4996
-42.0658
-41.6147
-41.1466
-40.6624
-40.1636
-39.6523
-39.131
-38.6023
-38.0691
-37.5345
-37.0016
-36.4732
-35.9526
-35.4427
-34.9463
-34.4661
-34.0043
-33.563
-33.144
-32.7484
-32.3773
-32.0312
-31.7102
-31.4144
-31.1432
-30.8962
-30.6725
-30.4711
-30.2913
-30.1319
-29.9921
-29.871
-29.7675
-29.6809
-29.6105
-29.5555
-29.5158
-29.4911
-29.4816
-29.4879
-29.5106
-29.5505
-29.6084
-29.6853
-29.7818
-29.8984
-30.0354
-30.1928
-30.3703
-30.5674
-30.7835
-31.0175
-31.2683
-31.5348
-31.8158
-32.1101
-32.4165
-32.7341
-33.0617
-33.3984
-33.7433
-34.0953
-34.4536
-34.8175
-35.1862
-35.5591
-35.9357
-36.3155
-36.6982
-37.0832
-37.4701
-37.8585
-38.2479
-38.638
-39.0284
-39.4185
-39.8078
-40.1954
-40.5803
-40.9611
-41.336
-41.7031
-45.1347
-44.7988
-44.4519
-44.0936
-43.7231
-43.339
-42.9398
-42.524
-42.0907
-41.6393
-41.1699
-40.6835
-40.1818
-39.667
-39.1417
-38.6089
-38.0714
-37.5324
-36.9951
-36.4624
-35.9375
-35.4235
-34.9234
-34.4397
-33.975
-33.5314
-33.1105
-32.7136
-32.3417
-31.9952
-31.6745
-31.3792
-31.1089
-30.863
-30.6406
-30.4406
-30.2622
-30.1042
-29.9657
-29.8459
-29.7436
-29.6581
-29.5885
-29.5341
-29.4945
-29.4695
-29.4594
-29.4647
-29.4862
-29.5248
-29.5816
-29.6575
-29.7532
-29.8694
-30.0064
-30.1641
-30.3423
-30.5405
-30.7579
-30.9934
-31.2459
-31.5141
-31.7968
-32.0927
-32.4007
-32.7197
-33.0487
-33.3868
-33.7329
-34.0862
-34.4456
-34.8105
-35.18
-35.5536
-35.9309
-36.3113
-36.6946
-37.0802
-37.4677
-37.8567
-38.2467
-38.6374
-39.0284
-39.4193
-39.8098
-40.1989
-40.5858
-40.969
-41.3467
-41.7169
-45.1676
-44.8313
-44.4854
-44.1296
-43.7625
-43.3823
-42.9868
-42.5739
-42.1419
-41.6898
-41.2178
-40.7268
-40.219
-39.6969
-39.1636
-38.6223
-38.0761
-37.5283
-36.9821
-36.4406
-35.907
-35.3848
-34.8769
-34.3864
-33.9159
-33.4674
-33.0428
-32.6433
-32.2698
-31.9228
-31.6024
-31.3084
-31.0401
-30.7966
-30.5768
-30.3797
-30.204
-30.0488
-29.9131
-29.7959
-29.6962
-29.6129
-29.5451
-29.4919
-29.4526
-29.4271
-29.4155
-29.4186
-29.4375
-29.4734
-29.5276
-29.6014
-29.6956
-29.8109
-29.9478
-30.1062
-30.2858
-30.4862
-30.7064
-30.9452
-31.2011
-31.4729
-31.7589
-32.058
-32.369
-32.6909
-33.0227
-33.3635
-33.7123
-34.0681
-34.4299
-34.7967
-35.1678
-35.5428
-35.9213
-36.3029
-36.6874
-37.0743
-37.463
-37.8531
-38.2442
-38.6358
-39.028
-39.4205
-39.8131
-40.2053
-40.5962
-40.9843
-41.3677
-41.7441
-45.2146
-44.8775
-44.5334
-44.1818
-43.8208
-43.4477
-43.059
-42.6513
-42.2219
-41.7692
-41.2929
-40.7946
-40.2769
-39.7432
-39.1972
-38.6428
-38.0834
-37.5222
-36.9625
-36.4075
-35.8606
-35.3256
-34.8058
-34.3047
-33.8252
-33.3694
-32.9392
-32.5358
-32.1601
-31.8124
-31.4929
-31.201
-30.9359
-30.6963
-30.4809
-30.2882
-30.1168
-29.9659
-29.8343
-29.7212
-29.6255
-29.5459
-29.4812
-29.43
-29.3914
-29.3649
-29.3509
-29.3503
-29.3648
-29.396
-29.446
-29.5161
-29.6078
-29.7218
-29.8585
-30.0179
-30.1999
-30.4037
-30.6284
-30.8723
-31.1339
-31.4112
-31.7025
-32.0064
-32.3218
-32.6479
-32.9838
-33.3288
-33.6818
-34.0415
-34.4068
-34.7765
-35.15
-35.5268
-35.9069
-36.2902
-36.6765
-37.0654
-37.4561
-37.8479
-38.2404
-38.6333
-39.0268
-39.4211
-39.8165
-40.2131
-40.6101
-41.0059
-41.3984
-41.7847
-45.2725
-44.9337
-44.5922
-44.2474
-43.8966
-43.5355
-43.1586
-42.7602
-42.3357
-41.8824
-41.4
-40.8906
-40.358
-39.8072
-39.2433
-38.6707
-38.0934
-37.5143
-36.9364
-36.3629
-35.7975
-35.2445
-34.7082
-34.1924
-33.7006
-33.235
-32.7975
-32.389
-32.0103
-31.662
-31.3439
-31.0554
-30.7953
-30.5618
-30.3528
-30.1663
-30.0009
-29.8554
-29.7293
-29.6218
-29.5319
-29.4581
-29.3983
-29.3506
-29.3131
-29.2853
-29.2673
-29.2609
-29.2682
-29.2922
-29.3355
-29.4004
-29.4884
-29.6003
-29.7367
-29.8976
-30.0828
-30.2916
-30.5228
-30.7745
-31.0442
-31.3295
-31.6281
-31.9384
-32.2594
-32.5907
-32.932
-33.2826
-33.6414
-34.0069
-34.3771
-34.7509
-35.1272
-35.5061
-35.8878
-36.273
-36.6618
-37.0535
-37.4472
-37.8416
-38.2358
-38.6297
-39.0238
-39.4195
-39.818
-40.2199
-40.625
-41.0317
-41.4373
-41.8381
-45.336
-44.9937
-44.6557
-44.3215
-43.9874
-43.6462
-43.2891
-42.9066
-42.491
-42.0377
-41.5462
-41.02
-40.4655
-39.8903
-39.3019
-38.7059
-38.1061
-37.5048
-36.9041
-36.3068
-35.717
-35.1399
-34.5812
-34.046
-33.5384
-33.0607
-32.6142
-32.1996
-31.8174
-31.4684
-31.1526
-30.8694
-30.617
-30.3925
-30.1926
-30.0146
-29.8566
-29.7177
-29.598
-29.4977
-29.4158
-29.3505
-29.2986
-29.2567
-29.2216
-29.1918
-29.1678
-29.1519
-29.1482
-29.161
-29.1945
-29.2519
-29.3348
-29.4441
-29.58
-29.7426
-29.9319
-30.1475
-30.388
-30.6508
-30.9324
-31.2288
-31.537
-31.855
-32.1823
-32.5193
-32.8668
-33.2247
-33.5916
-33.9652
-34.3426
-34.7214
-35.1007
-35.4809
-35.8637
-36.2506
-36.6425
-37.0386
-37.437
-37.8352
-38.2314
-38.6253
-39.0183
-39.4135
-39.8139
-40.2217
-40.6372
-41.0587
-41.4825
-41.9036
-45.397
-45.0476
-44.7137
-44.3956
-44.0881
-43.78
-43.4562
-43.1009
-42.7007
-42.248
-41.7425
-41.1903
-40.6028
-39.9928
-39.3716
-38.7467
-38.1211
-37.4948
-36.8673
-36.2403
-35.6184
-35.0091
-34.4206
-33.8604
-33.3335
-32.8418
-32.3854
-31.9637
-31.5773
-31.2272
-30.9148
-30.6396
-30.3989
-30.1881
-30.0016
-29.8347
-29.6851
-29.5528
-29.4395
-29.3473
-29.2764
-29.2241
-29.1852
-29.1534
-29.1229
-29.0906
-29.057
-29.0261
-29.0047
-29.0003
-29.0196
-29.0669
-29.1437
-29.2499
-29.3851
-29.5494
-29.7435
-29.9679
-30.2215
-30.5005
-30.7992
-31.1115
-31.432
-31.7585
-32.0912
-32.4329
-32.7867
-33.1537
-33.5323
-33.9181
-34.3058
-34.6912
-35.0727
-35.4521
-35.8333
-36.2208
-36.6168
-37.0202
-37.4268
-37.8313
-38.2299
-38.6216
-39.0095
-39.3996
-39.7987
-40.2119
-40.6404
-41.0818
-41.5309
-41.9804
-45.4434
-45.0793
-44.7487
-44.4545
-44.1897
-43.9363
-43.6688
-43.3597
-42.986
-42.5347
-42.0059
-41.4117
-40.7727
-40.1115
-39.4469
-38.7888
-38.1374
-37.4866
-36.83
-36.1666
-35.5022
-34.8485
-34.2195
-33.6272
-33.0781
-32.5725
-32.1068
-31.6777
-31.2851
-30.9324
-30.6238
-30.3604
-30.1383
-29.9491
-29.7826
-29.6305
-29.4893
-29.3608
-29.2511
-29.1668
-29.1106
-29.0788
-29.0622
-29.0486
-29.0273
-28.9918
-28.9426
-28.8871
-28.8371
-28.8061
-28.805
-28.8397
-28.9106
-29.0145
-29.1488
-29.3135
-29.5117
-29.7467
-30.0186
-30.3219
-30.6469
-30.9823
-31.3189
-31.653
-31.9873
-32.3294
-32.6876
-33.0662
-33.4625
-33.8681
-34.2723
-34.6665
-35.0477
-35.4203
-35.7939
-36.1787
-36.5804
-36.9968
-37.4191
-37.8359
-38.238
-38.6231
-38.997
-39.3721
-39.7629
-40.1794
-40.6244
-41.0935
-41.578
-42.0672
-45.4568
-45.0629
-44.7312
-44.4711
-44.2748
-44.1131
-43.9414
-43.7115
-43.383
-42.9332
-42.3635
-41.6979
-40.9745
-40.2353
-39.5129
-38.8215
-38.1531
-37.4868
-36.803
-36.0946
-35.3708
-34.6526
-33.9659
-33.332
-32.7605
-32.2461
-31.7759
-31.3394
-30.9359
-30.5746
-30.268
-30.0222
-29.8309
-29.6778
-29.5432
-29.4113
-29.2756
-29.1422
-29.0267
-28.9464
-28.91
-28.9122
-28.9351
-28.9556
-28.9524
-28.913
-28.8379
-28.7404
-28.6428
-28.5691
-28.539
-28.5609
-28.6302
-28.7358
-28.869
-29.0299
-29.2273
-29.4727
-29.7705
-30.1124
-30.48
-30.8515
-31.2095
-31.5473
-31.8722
-32.2027
-32.5593
-32.9531
-33.3794
-33.8203
-34.2533
-34.6603
-35.0351
-35.387
-35.738
-36.112
-36.5225
-36.9647
-37.4193
-37.8612
-38.2705
-38.6404
-38.9822
-39.3219
-39.6895
-40.1055
-40.5732
-41.0826
-41.6178
-42.1631
-45.41
-44.9569
-44.6106
-44.3958
-44.3104
-44.3043
-44.2979
-44.2053
-43.9546
-43.5046
-42.8595
-42.0671
-41.1996
-40.3348
-39.5344
-38.8212
-38.1659
-37.5124
-36.8115
-36.0452
-35.2314
-34.4118
-33.6364
-32.9474
-32.3609
-31.8563
-31.3968
-30.9539
-30.5261
-30.1385
-29.8251
-29.6058
-29.4687
-29.3802
-29.3005
-29.1978
-29.059
-28.8981
-28.7521
-28.6629
-28.6545
-28.7161
-28.812
-28.897
-28.9302
-28.8863
-28.7657
-28.5945
-28.4141
-28.2699
-28.1987
-28.214
-28.2978
-28.4178
-28.5497
-28.6937
-28.8742
-29.1235
-29.459
-29.8661
-30.3077
-30.7404
-31.1293
-31.4602
-31.7491
-32.0387
-32.3774
-32.7934
-33.2752
-33.7838
-34.2717
-34.7006
-35.0552
-35.355
-35.649
-35.9926
-36.4187
-36.9148
-37.4374
-37.9333
-38.3593
-38.6978
-38.9701
-39.2313
-39.5459
-39.9566
-40.4618
-41.034
-41.6427
-42.2667
-45.2635
-44.6971
-44.3007
-44.1345
-44.2317
-44.4962
-44.7787
-44.9269
-44.8133
-44.357
-43.5678
-42.5444
-41.4209
-40.342
-39.4302
-38.7379
-38.1761
-37.6066
-36.9145
-36.0643
-35.1008
-34.1073
-33.1829
-32.4154
-31.8435
-31.4021
-30.9939
-30.547
-30.0589
-29.5959
-29.2468
-29.0713
-29.037
-29.0702
-29.0913
-29.0367
-28.8746
-28.6329
-28.3962
-28.2633
-28.2985
-28.471
-28.705
-28.9135
-29.0194
-28.9702
-28.7666
-28.4621
-28.1335
-27.866
-27.7339
-27.7689
-27.9136
-28.0828
-28.2133
-28.3053
-28.4224
-28.6501
-29.0448
-29.5703
-30.1483
-30.6926
-31.133
-31.4335
-31.6252
-31.8041
-32.084
-32.539
-33.1324
-33.7769
-34.375
-34.8475
-35.1543
-35.3314
-35.4882
-35.7542
-36.2138
-36.8264
-37.4936
-38.106
-38.5737
-38.8503
-38.9736
-39.0636
-39.2637
-39.6712
-40.2535
-40.9324
-41.6452
-42.3738
-44.9545
-44.1925
-43.6592
-43.4935
-43.9123
-44.6619
-45.4532
-46.0256
-46.1655
-45.6886
-44.6137
-43.166
-41.5778
-40.1089
-39.0102
-38.4668
-38.1977
-37.8774
-37.2455
-36.2467
-35.0137
-33.7035
-32.5039
-31.602
-31.1385
-30.9004
-30.6469
-30.1997
-29.5561
-28.8897
-28.419
-28.3339
-28.5086
-28.778
-28.9916
-29.0307
-28.8055
-28.3609
-27.8912
-27.6223
-27.7453
-28.1378
-28.635
-29.0782
-29.3324
-29.277
-28.9134
-28.3651
-27.7654
-27.2675
-27.0288
-27.1662
-27.4944
-27.8038
-27.9326
-27.8811
-27.8115
-27.9368
-28.4424
-29.1991
-30.0376
-30.7946
-31.3382
-31.5636
-31.5198
-31.4243
-31.5386
-32.0851
-32.9163
-33.8367
-34.6591
-35.2331
-35.4402
-35.3366
-35.1701
-35.2368
-35.7886
-36.6592
-37.6286
-38.4865
-39.0631
-39.2232
-39.0246
-38.737
-38.6824
-39.1337
-39.9058
-40.7818
-41.6247
-42.4623
-44.348
-43.3583
-42.4879
-42.0106
-43.1161
-44.7675
-46.4429
-47.7472
-48.4059
-47.8817
-46.1965
-43.9901
-41.5633
-39.3429
-37.7908
-37.8009
-38.2931
-38.5974
-38.1051
-36.7666
-35.0381
-33.141
-31.3966
-30.1578
-30.1095
-30.4211
-30.5795
-30.1356
-29.0866
-27.9023
-27.0365
-27.2231
-27.8442
-28.5666
-29.144
-29.4059
-29.053
-28.1259
-27.0976
-26.4175
-26.8047
-27.6545
-28.6436
-29.5156
-30.092
-30.0283
-29.3268
-28.3428
-27.2514
-26.2966
-25.7828
-26.2892
-27.103
-27.7855
-27.9119
-27.4834
-26.9206
-26.6761
-27.479
-28.7103
-30.0447
-31.2042
-32.0019
-32.0817
-31.489
-30.7425
-30.371
-31.2217
-32.5715
-34.0377
-35.301
-36.1468
-36.1735
-35.4322
-34.5159
-34.0208
-34.9039
-36.3493
-37.9238
-39.2719
-40.1516
-40.1122
-39.2033
-38.0744
-37.3719
-38.1339
-39.4076
-40.6783
-41.6114
-42.4158
-42.9267
-42.3524
-40.7507
-38.2489
-41.534
-44.8387
-47.9672
-50.3984
-52.3497
-51.7466
-48.53
-45.1315
-41.2517
-37.6147
-34.3219
-36.4409
-38.6597
-40.4645
-40.1835
-37.8484
-35.3056
-32.3586
-29.5614
-26.9994
-28.5623
-30.1629
-31.38
-30.9429
-28.8124
-26.4564
-24.1387
-25.4867
-27.0345
-28.5646
-29.7511
-30.6667
-30.1279
-28.0368
-25.8031
-23.6762
-25.1984
-26.9711
-28.8211
-30.3795
-31.7738
-31.6986
-30.1474
-28.4757
-26.5408
-24.6909
-23.0681
-24.9699
-26.901
-28.5684
-28.6905
-27.2794
-25.5717
-23.9073
-25.8989
-28.0733
-30.3039
-32.1351
-33.6996
-33.5685
-31.6797
-29.5209
-27.4433
-29.6395
-32.0594
-34.5306
-36.5442
-38.24
-38.0124
-35.78
-33.2549
-30.8201
-33.2093
-35.8534
-38.5446
-40.7316
-42.5634
-42.2526
-39.6988
-36.7972
-33.9524
-36.397
-38.9131
-41.0606
-41.7825
-41.6363
-37.836
-42.8263
-40.3092
-26.1538
-39.9236
-45.1636
-50.4956
-53.7408
-59.9719
-59.3751
-51.1256
-46.9661
-40.5907
-35.391
-23.0603
-34.9373
-39.6224
-45.3357
-45.22
-39.2294
-36.1557
-31.3609
-27.3878
-17.9017
-26.9612
-30.4575
-34.5627
-34.1894
-28.8632
-24.9558
-15.9629
-23.4633
-26.2508
-29.0579
-30.7489
-34.0226
-33.4385
-28.1539
-24.3554
-15.6806
-23.2321
-26.177
-29.4192
-31.4803
-35.5722
-35.4954
-31.142
-28.9883
-25.7084
-22.7587
-15.2784
-23.6089
-27.079
-31.5772
-31.6773
-27.503
-24.1609
-15.8741
-24.0561
-27.3559
-31.1383
-33.4507
-37.8389
-37.5867
-32.2595
-28.1826
-18.3614
-27.7353
-31.4733
-35.6823
-38.2452
-43.1027
-42.738
-36.5492
-31.8635
-20.6728
-31.1473
-35.2892
-39.8912
-42.7023
-48.0601
-47.6226
-40.6944
-35.4376
-22.9157
-34.5567
-38.9488
-43.4951
-43.2025
-36.961
-42.0949
-42.5059
-42.8957
-43.261
-43.5991
-43.9078
-44.1859
-44.4325
-44.6472
-44.8302
-44.9817
-45.1021
-45.1919
-45.2516
-45.2813
-42.1121
-42.5267
-42.9197
-43.2877
-43.6278
-43.938
-44.2169
-44.4638
-44.6785
-44.8611
-45.0122
-45.1321
-45.2215
-45.2809
-45.3104
-42.1464
-42.5685
-42.9681
-43.3416
-43.6858
-43.9988
-44.2792
-44.5266
-44.7411
-44.9231
-45.0732
-45.1921
-45.2806
-45.3393
-45.3685
-42.1982
-42.6321
-43.0422
-43.4241
-43.7746
-44.0916
-44.374
-44.6219
-44.8357
-45.0163
-45.1647
-45.2819
-45.369
-45.4266
-45.4553
-42.268
-42.7189
-43.1439
-43.5376
-43.8963
-44.2182
-44.5028
-44.7507
-44.9629
-45.1411
-45.2868
-45.4014
-45.4862
-45.5422
-45.5701
-42.3566
-42.8312
-43.2763
-43.6853
-44.0542
-44.3816
-44.6678
-44.9144
-45.1236
-45.2978
-45.4393
-45.55
-45.6317
-45.6854
-45.7121
-42.4653
-42.9724
-43.4442
-43.8725
-44.2531
-44.5855
-44.8717
-45.1148
-45.3186
-45.4866
-45.6219
-45.7271
-45.8044
-45.8551
-45.8802
-42.5968
-43.1483
-43.6552
-44.1069
-44.4997
-44.8352
-45.118
-45.354
-45.5488
-45.7074
-45.8339
-45.9317
-46.003
-46.0497
-46.0728
-42.7554
-43.3683
-43.9209
-44.3998
-44.8031
-45.1369
-45.4106
-45.6337
-45.8145
-45.9595
-46.0741
-46.1619
-46.2257
-46.2673
-46.2878
-42.9488
-43.6481
-44.26
-44.7678
-45.1757
-45.4985
-45.7535
-45.9552
-46.1151
-46.2415
-46.3403
-46.4155
-46.4699
-46.5053
-46.5228
-43.1884
-44.0151
-44.7028
-45.2351
-45.6331
-45.9281
-46.1493
-46.3181
-46.4487
-46.5504
-46.6293
-46.6892
-46.7325
-46.7606
-46.7745
-43.4902
-44.5205
-45.3001
-45.8358
-46.1924
-46.4314
-46.5978
-46.7189
-46.8106
-46.8815
-46.9367
-46.9788
-47.0095
-47.0295
-47.0395
-43.877
-45.2753
-46.1407
-46.614
-46.8671
-47.0068
-47.0913
-47.1491
-47.1928
-47.2278
-47.2563
-47.2791
-47.2963
-47.3079
-47.3137
-44.4413
-46.5627
-47.3745
-47.6127
-47.6531
-47.6364
-47.6115
-47.5931
-47.5832
-47.58
-47.5811
-47.5843
-47.5881
-47.5913
-47.593
-45.9545
-49.1579
-49.1809
-48.8094
-48.4944
-48.2732
-48.1253
-48.0286
-47.9665
-47.9272
-47.9029
-47.8883
-47.8798
-47.8753
-47.8734
-51.1744
-51.1811
-51.1953
-51.2184
-51.2526
-51.3019
-51.372
-51.4725
-51.6189
-51.8394
-52.1892
-52.7947
-54.0084
-57.0529
-67.1016
-51.3984
-51.4081
-51.4282
-51.4604
-51.5078
-51.5748
-51.6687
-51.8011
-51.991
-52.2719
-52.707
-53.4258
-54.7152
-57.2253
-62.1895
-51.6156
-51.6276
-51.6524
-51.6919
-51.7491
-51.8289
-51.9387
-52.0897
-52.2998
-52.5972
-53.0276
-53.6604
-54.5742
-55.6935
-55.8895
-51.8242
-51.8379
-51.8662
-51.9107
-51.9745
-52.0621
-52.1798
-52.3373
-52.5479
-52.8301
-53.2072
-53.6994
-54.2902
-54.8029
-54.5655
-52.0231
-52.038
-52.0684
-52.116
-52.1833
-52.2741
-52.3933
-52.5479
-52.7461
-52.9969
-53.3063
-53.6699
-54.0601
-54.4331
-54.9732
-52.2115
-52.227
-52.2585
-52.3074
-52.3756
-52.4661
-52.5823
-52.7283
-52.9079
-53.1226
-53.3672
-53.6219
-53.842
-53.9469
-53.8648
-52.389
-52.4046
-52.4362
-52.485
-52.5523
-52.6401
-52.7504
-52.8853
-53.0453
-53.2273
-53.4203
-53.598
-53.7037
-53.5902
-52.7023
-52.5553
-52.5707
-52.6019
-52.6495
-52.7145
-52.7982
-52.9015
-53.0249
-53.1673
-53.3239
-53.4833
-53.624
-53.7176
-53.771
-54.2236
-52.7107
-52.7257
-52.7558
-52.8016
-52.8636
-52.9424
-53.0385
-53.1514
-53.2796
-53.4184
-53.5584
-53.6828
-53.7594
-53.6742
-52.7649
-52.8555
-52.8698
-52.8987
-52.9422
-53.0007
-53.0746
-53.1637
-53.2675
-53.3845
-53.5116
-53.6434
-53.7746
-53.9134
-54.1493
-55.1353
-52.9901
-53.0037
-53.031
-53.072
-53.127
-53.1959
-53.2785
-53.3744
-53.4825
-53.6011
-53.728
-53.8611
-54.0001
-54.1031
-53.7363
-53.1149
-53.1277
-53.1534
-53.192
-53.2434
-53.3075
-53.3841
-53.4729
-53.5733
-53.6847
-53.807
-53.9435
-54.1117
-54.3827
-55.1855
-53.2305
-53.2425
-53.2666
-53.3027
-53.3506
-53.4102
-53.4812
-53.5634
-53.6564
-53.7603
-53.8753
-54.0039
-54.1519
-54.2926
-54.0963
-53.3374
-53.3487
-53.3712
-53.4048
-53.4494
-53.5047
-53.5705
-53.6464
-53.7322
-53.8277
-53.933
-54.0507
-54.197
-54.436
-55.1101
-53.4362
-53.4467
-53.4677
-53.499
-53.5405
-53.5918
-53.6526
-53.7226
-53.8013
-53.888
-53.9809
-54.0777
-54.1778
-54.2767
-54.3603
-53.5273
-53.5371
-53.5567
-53.5859
-53.6244
-53.672
-53.7283
-53.7928
-53.865
-53.9435
-54.025
-54.1024
-54.1595
-54.1274
-53.6725
-53.6113
-53.6205
-53.6387
-53.6659
-53.7017
-53.7459
-53.7981
-53.8578
-53.9244
-53.9965
-54.0707
-54.1411
-54.2031
-54.2713
-54.5978
-53.6886
-53.6972
-53.7142
-53.7395
-53.7729
-53.814
-53.8625
-53.9181
-53.9801
-54.0476
-54.1177
-54.1857
-54.2422
-54.2352
-53.8291
-53.7596
-53.7676
-53.7835
-53.8072
-53.8384
-53.8767
-53.922
-53.974
-54.0322
-54.0963
-54.165
-54.2382
-54.3255
-54.4755
-55.0088
-53.8247
-53.8322
-53.8471
-53.8693
-53.8985
-53.9344
-53.9768
-54.0255
-54.0804
-54.1414
-54.2079
-54.2808
-54.3653
-54.4491
-54.3372
-53.8842
-53.8913
-53.9053
-53.9261
-53.9535
-53.9873
-54.0271
-54.0729
-54.1245
-54.182
-54.2451
-54.3154
-54.4055
-54.5581
-54.9872
-53.9385
-53.9452
-53.9584
-53.978
-54.0039
-54.0357
-54.0732
-54.1162
-54.1647
-54.2183
-54.2759
-54.3362
-54.4022
-54.4744
-54.5449
-53.9878
-53.9941
-54.0066
-54.0252
-54.0497
-54.0798
-54.1153
-54.1559
-54.2015
-54.2513
-54.3032
-54.3531
-54.3946
-54.3912
-54.1564
-54.0323
-54.0383
-54.0502
-54.0679
-54.0912
-54.1199
-54.1536
-54.1923
-54.2355
-54.2824
-54.3305
-54.3759
-54.4181
-54.4679
-54.6675
-54.0722
-54.0779
-54.0894
-54.1064
-54.1287
-54.1561
-54.1885
-54.2256
-54.2671
-54.3121
-54.3581
-54.4009
-54.4363
-54.44
-54.2643
-54.1077
-54.1133
-54.1243
-54.1406
-54.1622
-54.1887
-54.22
-54.2559
-54.2964
-54.3405
-54.3864
-54.4311
-54.4764
-54.536
-54.7427
-54.139
-54.1443
-54.155
-54.1709
-54.1918
-54.2176
-54.2481
-54.2833
-54.3232
-54.3673
-54.414
-54.4609
-54.5065
-54.529
-54.3713
-54.1661
-54.1713
-54.1817
-54.1972
-54.2176
-54.2428
-54.2728
-54.3075
-54.3472
-54.3916
-54.44
-54.4915
-54.5528
-54.6465
-54.9155
-54.1891
-54.1943
-54.2045
-54.2197
-54.2397
-54.2645
-54.2941
-54.3285
-54.368
-54.4127
-54.462
-54.5152
-54.5765
-54.6413
-54.632
-54.2082
-54.2132
-54.2233
-54.2383
-54.258
-54.2825
-54.3118
-54.346
-54.3854
-54.4301
-54.4796
-54.5334
-54.5977
-54.6869
-54.8731
-54.2233
-54.2283
-54.2382
-54.2531
-54.2726
-54.2969
-54.326
-54.36
-54.3992
-54.4437
-54.4925
-54.5442
-54.6017
-54.6644
-54.7235
-54.2345
-54.2395
-54.2493
-54.2641
-54.2835
-54.3077
-54.3367
-54.3705
-54.4095
-54.4537
-54.5016
-54.551
-54.602
-54.6434
-54.6207
-54.2418
-54.2467
-54.2566
-54.2713
-54.2907
-54.3149
-54.3438
-54.3775
-54.4165
-54.4604
-54.5079
-54.5567
-54.6089
-54.6662
-54.7547
-54.2452
-54.2501
-54.26
-54.2747
-54.2942
-54.3183
-54.3473
-54.3812
-54.4201
-54.464
-54.5114
-54.5601
-54.6123
-54.6663
-54.7092
-54.2446
-54.2496
-54.2595
-54.2743
-54.2939
-54.3182
-54.3473
-54.3813
-54.4205
-54.4646
-54.5121
-54.5612
-54.6145
-54.6734
-54.7376
-54.2402
-54.2452
-54.2552
-54.2701
-54.2898
-54.3143
-54.3437
-54.3781
-54.4176
-54.4621
-54.51
-54.5592
-54.6128
-54.6758
-54.7785
-54.2318
-54.2368
-54.2469
-54.262
-54.2819
-54.3068
-54.3365
-54.3714
-54.4115
-54.4567
-54.5051
-54.554
-54.6045
-54.6498
-54.6467
-54.2193
-54.2245
-54.2347
-54.25
-54.2702
-54.2954
-54.3257
-54.3612
-54.4021
-54.4483
-54.4979
-54.5479
-54.5997
-54.6566
-54.7691
-54.2028
-54.2081
-54.2184
-54.2339
-54.2545
-54.2802
-54.311
-54.3473
-54.3893
-54.4369
-54.4883
-54.5404
-54.5914
-54.624
-54.5546
-54.1822
-54.1875
-54.1981
-54.2138
-54.2348
-54.2609
-54.2925
-54.3296
-54.3728
-54.4222
-54.4764
-54.5336
-54.5959
-54.6614
-54.7194
-54.1575
-54.1628
-54.1736
-54.1896
-54.211
-54.2376
-54.2698
-54.3078
-54.3522
-54.4034
-54.4605
-54.5232
-54.5982
-54.7029
-54.9311
-54.1284
-54.1339
-54.1448
-54.1612
-54.1829
-54.2101
-54.2429
-54.2818
-54.3272
-54.3797
-54.4388
-54.5041
-54.58
-54.6577
-54.6304
-54.095
-54.1006
-54.1118
-54.1284
-54.1506
-54.1783
-54.2117
-54.2512
-54.2974
-54.3507
-54.4107
-54.4776
-54.5606
-54.6845
-54.9947
-54.0573
-54.063
-54.0743
-54.0913
-54.1139
-54.1421
-54.1761
-54.2163
-54.2629
-54.3164
-54.3757
-54.4399
-54.5128
-54.5809
-54.4865
-54.015
-54.0208
-54.0324
-54.0497
-54.0727
-54.1015
-54.1361
-54.1769
-54.224
-54.2773
-54.3353
-54.3962
-54.4684
-54.5892
-55.014
-53.9682
-53.9741
-53.9859
-54.0036
-54.0271
-54.0564
-54.0917
-54.1332
-54.1809
-54.2343
-54.2907
-54.3446
-54.3902
-54.3853
-54.0612
-53.9167
-53.9227
-53.9348
-53.9528
-53.9768
-54.0068
-54.0429
-54.0853
-54.1341
-54.1886
-54.2455
-54.2989
-54.3469
-54.4021
-54.6723
-53.8605
-53.8666
-53.8789
-53.8973
-53.9218
-53.9525
-53.9895
-54.0332
-54.0836
-54.1404
-54.2005
-54.2571
-54.2987
-54.2686
-53.8897
-53.7994
-53.8057
-53.8182
-53.837
-53.862
-53.8934
-53.9314
-53.9764
-54.029
-54.0893
-54.1557
-54.2255
-54.3004
-54.3762
-54.4394
-53.7334
-53.7398
-53.7526
-53.7717
-53.7972
-53.8293
-53.8682
-53.9146
-53.9693
-54.0331
-54.1063
-54.1905
-54.3015
-54.4914
-55.04
-53.6625
-53.669
-53.6819
-53.7013
-53.7273
-53.76
-53.7997
-53.8472
-53.9034
-53.9697
-54.0469
-54.1371
-54.2477
-54.3566
-54.1891
-53.5865
-53.593
-53.6062
-53.6259
-53.6522
-53.6853
-53.7256
-53.7738
-53.8308
-53.8979
-53.9763
-54.0693
-54.1952
-54.4125
-55.0687
-53.5053
-53.512
-53.5253
-53.5452
-53.5718
-53.6053
-53.646
-53.6944
-53.7513
-53.8176
-53.8933
-53.9788
-54.0793
-54.1627
-53.8701
-53.419
-53.4257
-53.4391
-53.4592
-53.4861
-53.5199
-53.5608
-53.6092
-53.6657
-53.7301
-53.8011
-53.8778
-53.9752
-54.1728
-55.0168
-53.3274
-53.3342
-53.3477
-53.3679
-53.395
-53.429
-53.4702
-53.5187
-53.5747
-53.6373
-53.7026
-53.7624
-53.8016
-53.7329
-52.9965
-53.2306
-53.2374
-53.2509
-53.2713
-53.2986
-53.3328
-53.3742
-53.4231
-53.4794
-53.5418
-53.6056
-53.6614
-53.7029
-53.7555
-54.2325
-53.1284
-53.1352
-53.1488
-53.1693
-53.1967
-53.2311
-53.273
-53.3225
-53.38
-53.4446
-53.5117
-53.5704
-53.5966
-53.4824
-52.7001
-53.021
-53.0278
-53.0414
-53.0618
-53.0893
-53.1239
-53.1661
-53.2166
-53.2761
-53.3448
-53.4212
-53.5019
-53.5877
-53.6722
-53.7391
-52.9082
-52.915
-52.9285
-52.9489
-52.9763
-53.0109
-53.0534
-53.1047
-53.166
-53.239
-53.3253
-53.4299
-53.5797
-53.8731
-54.832
-52.7901
-52.7968
-52.8102
-52.8305
-52.8576
-52.8921
-52.9345
-52.9859
-53.0479
-53.1231
-53.2143
-53.3267
-53.472
-53.6108
-53.2525
-52.6668
-52.6734
-52.6866
-52.7065
-52.7333
-52.7673
-52.8091
-52.8598
-52.9211
-52.9954
-53.086
-53.2005
-53.3688
-53.6925
-54.7777
-52.5383
-52.5448
-52.5577
-52.5772
-52.6034
-52.6366
-52.6774
-52.7265
-52.7854
-52.8557
-52.9387
-53.0371
-53.1577
-53.2444
-52.6835
-52.4047
-52.411
-52.4236
-52.4426
-52.4681
-52.5003
-52.5396
-52.5866
-52.6421
-52.7063
-52.7782
-52.8584
-52.9701
-53.2447
-54.588
-52.2661
-52.2723
-52.2845
-52.3028
-52.3275
-52.3585
-52.3963
-52.4411
-52.493
-52.5508
-52.6096
-52.6578
-52.6693
-52.5019
-51.2396
-52.1227
-52.1286
-52.1404
-52.1581
-52.1818
-52.2116
-52.2479
-52.2908
-52.3401
-52.3939
-52.4457
-52.4826
-52.493
-52.5181
-53.2159
-51.9746
-51.9803
-51.9915
-52.0085
-52.0312
-52.0598
-52.0947
-52.1362
-52.1842
-52.2375
-52.2899
-52.3257
-52.3064
-52.0659
-50.7862
-51.822
-51.8273
-51.8381
-51.8543
-51.8759
-51.9033
-51.9368
-51.9771
-52.0251
-52.081
-52.1429
-52.2072
-52.2736
-52.3342
-52.374
-51.665
-51.6701
-51.6803
-51.6955
-51.716
-51.742
-51.774
-51.813
-51.8607
-51.9193
-51.9919
-52.0872
-52.2447
-52.6159
-53.9972
-51.5038
-51.5086
-51.5182
-51.5325
-51.5517
-51.576
-51.6061
-51.643
-51.689
-51.7473
-51.8226
-51.924
-52.0673
-52.1951
-51.5846
-51.3388
-51.3432
-51.3522
-51.3655
-51.3833
-51.4057
-51.4332
-51.467
-51.5089
-51.5625
-51.6327
-51.7317
-51.9008
-52.2859
-53.7587
-51.1699
-51.1741
-51.1824
-51.1948
-51.211
-51.2313
-51.2558
-51.2853
-51.3212
-51.3654
-51.4203
-51.4907
-51.5843
-51.6201
-50.7316
-50.9976
-51.0015
-51.0092
-51.0206
-51.0354
-51.0535
-51.0748
-51.0995
-51.1279
-51.1599
-51.1946
-51.2337
-51.3078
-51.5951
-53.3271
-50.8219
-50.8256
-50.8328
-50.8433
-50.8568
-50.8729
-50.8913
-50.9114
-50.9323
-50.9518
-50.9633
-50.9523
-50.8833
-50.5657
-48.7731
-50.6431
-50.6466
-50.6535
-50.6634
-50.6759
-50.6904
-50.7064
-50.7228
-50.738
-50.7485
-50.7452
-50.7113
-50.6315
-50.5594
-51.3424
-50.4612
-50.4647
-50.4714
-50.4809
-50.4929
-50.5065
-50.5209
-50.5351
-50.5473
-50.5539
-50.5456
-50.5022
-50.3744
-49.958
-48.2403
-50.2764
-50.2799
-50.2866
-50.2962
-50.3081
-50.3215
-50.3355
-50.349
-50.3609
-50.3687
-50.3679
-50.3517
-50.3178
-50.259
-50.1762
-50.0885
-50.0921
-50.0992
-50.1092
-50.1216
-50.1356
-50.1501
-50.1644
-50.1774
-50.1888
-50.1984
-50.2135
-50.2784
-50.5757
-52.0624
-49.8974
-49.9014
-49.909
-49.9199
-49.9335
-49.9488
-49.9649
-49.9807
-49.9955
-50.0091
-50.0224
-50.0408
-50.0775
-50.0652
-49.1876
-49.7031
-49.7074
-49.7159
-49.7282
-49.7435
-49.761
-49.7796
-49.7979
-49.8147
-49.8289
-49.8404
-49.8555
-49.9107
-50.1545
-51.5125
-49.505
-49.51
-49.5196
-49.5336
-49.5514
-49.5721
-49.5943
-49.6164
-49.6359
-49.6498
-49.6533
-49.6423
-49.6129
-49.4689
-48.3212
-49.303
-49.3086
-49.3196
-49.3358
-49.3567
-49.3816
-49.409
-49.4368
-49.4614
-49.477
-49.4739
-49.4418
-49.3948
-49.4791
-50.8077
-49.0965
-49.1028
-49.1154
-49.1341
-49.1587
-49.1888
-49.2232
-49.2596
-49.2935
-49.3164
-49.3119
-49.2518
-49.0856
-48.624
-46.7839
-48.885
-48.8921
-48.9062
-48.9276
-48.9564
-48.9927
-49.0359
-49.0843
-49.1335
-49.174
-49.186
-49.1354
-48.9817
-48.725
-48.9307
-48.6681
-48.6758
-48.6913
-48.7152
-48.7483
-48.7913
-48.8448
-48.9085
-48.9799
-49.0507
-49.1009
-49.0907
-48.9492
-48.5038
-47.1288
-48.4453
-48.4534
-48.4699
-48.4959
-48.5327
-48.5821
-48.6464
-48.7277
-48.8269
-48.9408
-49.0553
-49.1373
-49.1278
-48.9271
-48.4787
-48.2163
-48.2245
-48.2414
-48.2685
-48.3077
-48.3621
-48.436
-48.5346
-48.6641
-48.8297
-49.0298
-49.2474
-49.4392
-49.5211
-49.5248
-47.981
-47.9889
-48.0053
-48.032
-48.0716
-48.1283
-48.2082
-48.3201
-48.4765
-48.6937
-48.9896
-49.3755
-49.8271
-50.1684
-49.8941
-47.7397
-47.7467
-47.7615
-47.7859
-47.8231
-47.8779
-47.958
-48.075
-48.247
-48.5023
-48.8845
-49.4579
-50.2915
-51.2422
-50.7672
-47.493
-47.4985
-47.5103
-47.5304
-47.5618
-47.6096
-47.682
-47.7917
-47.9597
-48.2221
-48.6441
-49.3597
-50.6747
-53.3048
-58.8866
-47.2419
-47.2453
-47.2529
-47.2663
-47.2884
-47.3239
-47.38
-47.4681
-47.6073
-47.83
-48.1975
-48.8453
-50.1448
-53.3165
-63.3208
-64.62
-54.4512
-51.1984
-49.8545
-49.1773
-48.7887
-48.5491
-48.3961
-48.2966
-48.2313
-48.1884
-48.1605
-48.1429
-48.1326
-48.1279
-60.4949
-54.4595
-51.7071
-50.3416
-49.596
-49.153
-48.8744
-48.6932
-48.5728
-48.4918
-48.437
-48.4004
-48.3765
-48.3622
-48.3554
-51.4014
-52.1868
-51.253
-50.3982
-49.8024
-49.4022
-49.1322
-48.9482
-48.8215
-48.7336
-48.6726
-48.6307
-48.6029
-48.5858
-48.5778
-50.9358
-51.1068
-50.7444
-50.2748
-49.871
-49.5601
-49.3303
-49.1634
-49.043
-48.9564
-48.8944
-48.8507
-48.8211
-48.8028
-48.794
-50.3585
-50.3961
-50.3108
-50.1056
-49.8732
-49.6607
-49.4847
-49.3466
-49.241
-49.1617
-49.1029
-49.0604
-49.031
-49.0125
-49.0035
-49.2475
-49.7696
-49.9609
-49.9549
-49.8595
-49.7349
-49.6131
-49.5073
-49.4207
-49.3523
-49.2996
-49.2604
-49.2327
-49.215
-49.2063
-48.2956
-49.3716
-49.7484
-49.8661
-49.864
-49.8064
-49.7303
-49.6548
-49.5877
-49.5315
-49.4865
-49.4519
-49.4268
-49.4106
-49.4026
-49.4829
-49.458
-49.7161
-49.8605
-49.9048
-49.8898
-49.8474
-49.7965
-49.7469
-49.7026
-49.6655
-49.6361
-49.6142
-49.5998
-49.5927
-47.8156
-49.3467
-49.7632
-49.924