/*--------------------------------*- C++ -*----------------------------------*\
| =========                 |                                                 |
| \\      /  F ield         | OpenFOAM: The Open Source CFD Toolbox           |
|  \\    /   O peration     | Version:  5.x                                   |
|   \\  /    A nd           | Web:      www.OpenFOAM.org                      |
|    \\/     M anipulation  |                                                 |
\*---------------------------------------------------------------------------*/
FoamFile
{
    version     2.0;
    format      ascii;
    class       volScalarField;
    location    "2.6";
    object      gradTy;
}
// * * * * * * * * * * * * * * * * * * * * * * * * * * * * * * * * * * * * * //

dimensions      [0 -1 0 1 0 0 0];

internalField   nonuniform List<scalar> 
6300
(
32275.8
32227.4
32179.1
32130.8
32082.6
32034.5
31986.6
31938.9
31891.4
31844.1
31797.2
31750.5
31704.1
31658
31612.4
-0.0208
-0.0624834
-0.104403
-0.146668
-0.189314
-0.232282
-0.275386
-0.3183
-0.360553
-0.401551
-0.440632
-0.477162
-0.510663
-0.540973
-0.568375
-0.0345763
-0.103879
-0.17362
-0.244014
-0.315157
-0.386972
-0.459172
-0.531213
-0.602287
-0.671343
-0.737173
-0.798573
-0.854582
-0.904778
-0.949555
-0.0481949
-0.144832
-0.242182
-0.340612
-0.440324
-0.541277
-0.643112
-0.745088
-0.846032
-0.944352
-1.03813
-1.12536
-1.2043
-1.27398
-1.33475
-0.0615619
-0.185062
-0.309648
-0.43591
-0.564227
-0.694669
-0.826879
-0.959956
-1.09236
-1.22185
-1.34559
-1.46038
-1.56321
-1.65203
-1.72674
-0.0745557
-0.224207
-0.375436
-0.529144
-0.685993
-0.846277
-1.00976
-1.17547
-1.34156
-1.50507
-1.66196
-1.80733
-1.93607
-2.04412
-2.13012
-0.087007
-0.261768
-0.43873
-0.619215
-0.804299
-0.994657
-1.19036
-1.39058
-1.59328
-1.79485
-1.98979
-2.17083
-2.32957
-2.4582
-2.55242
-0.0987065
-0.297116
-0.498483
-0.704662
-0.917296
-1.13765
-1.36639
-1.60315
-1.84609
-2.09117
-2.33145
-2.55657
-2.7531
-2.90663
-3.00646
-0.109405
-0.329493
-0.553402
-0.783624
-1.02253
-1.27223
-1.53433
-1.80948
-2.0967
-2.39224
-2.6882
-2.97083
-3.21959
-3.40873
-3.51424
-0.118821
-0.358037
-0.601987
-0.853872
-1.11693
-1.39436
-1.68916
-2.00369
-2.3389
-2.69283
-3.05823
-3.41892
-3.74567
-3.99444
-4.1141
-0.12666
-0.381832
-0.642611
-0.912914
-1.19691
-1.49907
-1.8242
-2.17716
-2.5623
-2.98189
-3.43291
-3.9009
-4.34969
-4.70922
-4.87431
-0.132642
-0.400003
-0.673687
-0.958227
-1.25866
-1.58076
-1.93134
-2.31839
-2.75119
-3.23945
-3.79059
-4.40203
-5.04294
-5.61834
-5.92292
-0.136543
-0.411835
-0.693877
-0.987606
-1.29868
-1.63393
-2.00191
-2.41382
-2.88455
-3.43407
-4.08793
-4.87365
-5.8016
-6.79812
-7.52382
-0.138229
-0.416899
-0.702349
-0.999593
-1.31449
-1.65429
-2.0285
-2.45034
-2.93908
-3.52431
-4.25334
-5.20294
-6.4915
-8.24839
-10.2767
-0.137696
-0.415164
-0.698991
-0.99388
-1.30532
-1.64015
-2.0074
-2.41989
-2.89704
-3.47072
-4.19812
-5.19313
-6.71276
-9.42684
-15.3832
31570.9
31533.4
31496.2
31459.3
31422.7
31386.5
31350.5
31314.9
31279.7
31244.8
31210.3
31176.2
31142.5
31109.2
31076.4
31044
31012.1
30980.6
30949.5
30918.9
30888.7
30859
30829.7
30800.8
30772.2
30744.1
30716.3
30688.9
30661.8
30635
30608.4
30582.1
30556.1
30530.3
30504.6
30479.2
30453.9
30428.7
30403.7
30378.7
30353.9
30329.1
30304.5
30279.8
30255.2
30230.6
30206.1
30181.5
30157
30132.4
30107.7
30083
30058.3
30033.4
30008.5
29983.4
29958.2
29932.8
29907.2
29881.5
29855.6
29829.4
29803
29776.4
29749.5
29722.4
29695
29667.3
29639.3
29611.1
29582.5
29553.7
29524.5
29495
29465.2
29435.1
29404.7
29374
29342.9
29311.5
29279.8
29247.8
29215.4
29182.7
29149.7
29116.4
29082.7
29048.7
29014.4
28979.8
-0.591563
-0.611979
-0.632599
-0.654307
-0.677852
-0.703711
-0.731969
-0.762275
-0.793867
-0.825672
-0.856453
-0.884978
-0.910156
-0.931133
-0.947312
-0.958325
-0.963971
-0.964141
-0.958784
-0.947895
-0.93154
-0.909891
-0.883253
-0.852069
-0.816899
-0.778384
-0.737202
-0.694036
-0.649561
-0.604428
-0.559251
-0.514592
-0.470924
-0.428613
-0.387898
-0.348906
-0.311673
-0.276188
-0.242421
-0.210334
-0.179866
-0.150897
-0.123209
-0.0964577
-0.0701776
-0.043823
-0.0168337
0.0112857
0.0408956
0.072176
0.105115
0.139528
0.175098
0.21142
0.248037
0.284467
0.320224
0.354843
0.387906
0.419083
0.448159
0.475045
0.499767
0.522423
0.543139
0.562024
0.579144
0.594536
0.608235
0.620306
0.630874
0.640117
0.648239
0.655426
0.661807
0.667442
0.672328
0.67644
0.67977
0.682347
0.684233
0.685475
0.686047
0.685792
0.684389
0.681365
0.676146
0.668131
0.656779
0.641673
-0.986907
-1.01954
-1.0525
-1.08748
-1.12597
-1.16893
-1.21659
-1.26831
-1.32268
-1.37765
-1.43092
-1.4802
-1.52354
-1.55946
-1.58702
-1.60572
-1.61531
-1.61568
-1.60677
-1.58853
-1.561
-1.52444
-1.47935
-1.42649
-1.36687
-1.30161
-1.23189
-1.15888
-1.08373
-1.00754
-0.931368
-0.856192
-0.782846
-0.711958
-0.643916
-0.578883
-0.516863
-0.457788
-0.401589
-0.348228
-0.29766
-0.24975
-0.204172
-0.160345
-0.117433
-0.0744178
-0.0302418
0.0160327
0.0650781
0.117213
0.172387
0.23023
0.290145
0.351396
0.413179
0.474658
0.534985
0.593334
0.648955
0.701251
0.749844
0.79461
0.835648
0.873205
0.907556
0.938915
0.967386
0.992982
1.0157
1.03562
1.05296
1.06804
1.08128
1.09306
1.10361
1.11301
1.12119
1.12807
1.13358
1.13779
1.14087
1.14301
1.14423
1.14434
1.14279
1.13869
1.13097
1.11849
1.10024
1.07546
-1.38414
-1.42664
-1.46947
-1.51558
-1.56762
-1.62736
-1.69532
-1.77051
-1.85056
-1.93204
-2.01108
-2.08394
-2.14754
-2.19977
-2.23945
-2.26616
-2.27985
-2.28054
-2.26813
-2.24245
-2.2034
-2.1512
-2.08654
-2.01058
-1.92487
-1.83116
-1.73121
-1.62672
-1.5193
-1.41052
-1.30195
-1.19505
-1.09112
-0.991097
-0.895489
-0.804408
-0.7177
-0.635129
-0.556553
-0.481982
-0.411511
-0.345127
-0.282496
-0.222799
-0.164719
-0.106569
-0.0465571
0.0169031
0.0849241
0.157985
0.235925
0.318058
0.403375
0.490711
0.578864
0.666609
0.752695
0.835853
0.914892
0.988847
1.05714
1.11963
1.17664
1.22869
1.27637
1.32005
1.35985
1.39565
1.42728
1.45474
1.47834
1.49868
1.51651
1.53252
1.54712
1.56037
1.57201
1.58172
1.58931
1.59491
1.59893
1.60188
1.60407
1.60534
1.60488
1.60127
1.59269
1.57722
1.55316
1.51925
-1.78475
-1.83314
-1.88161
-1.93506
-1.99806
-2.07385
-2.16351
-2.26561
-2.37625
-2.48984
-2.60003
-2.70089
-2.78782
-2.85803
-2.91045
-2.94524
-2.96302
-2.96416
-2.94852
-2.91554
-2.86466
-2.79586
-2.70995
-2.60865
-2.49435
-2.36966
-2.23707
-2.09878
-1.95684
-1.81324
-1.67013
-1.52968
-1.39383
-1.26394
-1.14062
-1.02373
-0.912682
-0.806837
-0.705881
-0.609981
-0.519637
-0.43528
-0.356788
-0.283137
-0.21233
-0.14164
-0.0680935
0.0109358
0.0972266
0.191434
0.293107
0.400976
0.513353
0.628498
0.744769
0.860575
0.974232
1.08391
1.18774
1.28419
1.37234
1.45214
1.52431
1.59004
1.65048
1.70633
1.75762
1.80385
1.84439
1.87897
1.90797
1.93247
1.95389
1.97355
1.99215
2.0096
2.02517
2.03797
2.04748
2.05389
2.05813
2.06145
2.06486
2.06845
2.07114
2.07065
2.06399
2.04801
2.01997
1.97792
-2.19155
-2.2395
-2.28651
-2.34072
-2.41003
-2.50027
-2.61374
-2.74829
-2.89763
-3.05245
-3.20232
-3.33781
-3.4521
-3.5418
-3.60674
-3.64874
-3.67004
-3.67185
-3.65379
-3.6143
-3.55164
-3.46504
-3.35541
-3.22537
-3.07871
-2.91945
-2.75101
-2.57603
-2.39665
-2.21515
-2.03438
-1.8576
-1.68786
-1.52725
-1.37641
-1.23456
-1.1001
-0.971435
-0.847864
-0.729918
-0.619088
-0.516939
-0.424066
-0.339342
-0.259745
-0.180799
-0.0975066
-0.00547536
0.0981366
0.214129
0.341363
0.477385
0.619325
0.764635
0.91131
1.05759
1.20146
1.34031
1.47118
1.59141
1.69951
1.79556
1.88119
1.95892
2.03111
2.09908
2.16258
2.22015
2.26999
2.31112
2.34398
2.37058
2.39371
2.41599
2.43871
2.46141
2.48221
2.49887
2.50999
2.51588
2.51852
2.5208
2.52525
2.53278
2.54188
2.54883
2.5486
2.53605
2.50686
2.45808
-2.60966
-2.64715
-2.68099
-2.72463
-2.7918
-2.89324
-3.03355
-3.20966
-3.41108
-3.62212
-3.82528
-4.00521
-4.15171
-4.26119
-4.33599
-4.38199
-4.40508
-4.40809
-4.38987
-4.34635
-4.27303
-4.16734
-4.03019
-3.86594
-3.68114
-3.48236
-3.27432
-3.05954
-2.83943
-2.61595
-2.39283
-2.17529
-1.96866
-1.77641
-1.59916
-1.43468
-1.27908
-1.12862
-0.981663
-0.839526
-0.705955
-0.585161
-0.479528
-0.38809
-0.306147
-0.226143
-0.139427
-0.0384853
0.0812965
0.220715
0.377041
0.545345
0.720515
0.898874
1.07848
1.25816
1.43598
1.60828
1.76999
1.91619
2.04408
2.15403
2.24952
2.33581
2.41789
2.49831
2.57615
2.64762
2.70822
2.7552
2.78908
2.81371
2.83483
2.85784
2.88534
2.91601
2.94528
2.96776
2.98009
2.98262
2.97948
2.97705
2.98127
2.99487
3.01575
3.0374
3.05101
3.0481
3.022
2.96848
-3.04867
-3.06007
-3.06138
-3.07467
-3.12429
-3.2303
-3.40188
-3.63463
-3.91074
-4.2032
-4.48173
-4.72077
-4.90468
-5.03056
-5.10674
-5.14827
-5.16903
-5.1749
-5.16238
-5.12131
-5.041
-4.91493
-4.74396
-4.53604
-4.30366
-4.05856
-3.80725
-3.55067
-3.28694
-3.01616
-2.7431
-2.47718
-2.2286
-2.00381
-1.80336
-1.62186
-1.45047
-1.28057
-1.1083
-0.936567
-0.774173
-0.63129
-0.514276
-0.422882
-0.349463
-0.280843
-0.201512
-0.0982838
0.0365381
0.20333
0.395861
0.603823
0.817523
1.03174
1.24596
1.46184
1.67889
1.89197
2.09158
2.2678
2.41496
2.53381
2.63158
2.71927
2.80757
2.90177
2.99941
3.09127
3.16656
3.21867
3.24804
3.2624
3.27375
3.29373
3.32793
3.37315
3.41862
3.45176
3.4648
3.45798
3.43991
3.42418
3.42426
3.4469
3.48895
3.53794
3.57762
3.5939
3.57699
3.52142
-3.52656
-3.48756
-3.42456
-3.37252
-3.37569
-3.4731
-3.68235
-3.99736
-4.38704
-4.80454
-5.19526
-5.5159
-5.74138
-5.87167
-5.92753
-5.94459
-5.95455
-5.96832
-5.9761
-5.95289
-5.87491
-5.72724
-5.51096
-5.24136
-4.94448
-4.64367
-4.34768
-4.05198
-3.74453
-3.4195
-3.08292
-2.75389
-2.45407
-2.19589
-1.97999
-1.79416
-1.61936
-1.43557
-1.23377
-1.01972
-0.813813
-0.639645
-0.511574
-0.431197
-0.385251
-0.350317
-0.297326
-0.202856
-0.0534969
0.149686
0.393303
0.654924
0.9147
1.16556
1.412
1.66483
1.92853
2.1961
2.44791
2.66237
2.82775
2.94507
3.02929
3.10301
3.18995
3.30147
3.43218
3.56002
3.65951
3.71612
3.72984
3.71668
3.70145
3.71041
3.75585
3.83116
3.91093
3.96592
3.9793
3.95072
3.89812
3.8497
3.83586
3.87208
3.95319
4.05287
4.13888
4.18839
4.1885
4.13449
-4.07677
-3.94964
-3.77197
-3.59091
-3.49145
-3.55498
-3.81065
-4.25275
-4.82351
-5.44466
-6.00993
-6.44824
-6.71538
-6.82016
-6.80438
-6.75131
-6.73473
-6.77051
-6.83457
-6.86344
-6.80926
-6.63845
-6.35482
-5.98599
-5.59097
-5.22183
-4.88764
-4.57015
-4.2273
-3.83937
-3.41172
-2.98838
-2.61934
-2.32685
-2.11303
-1.95026
-1.80086
-1.61613
-1.37646
-1.09069
-0.807264
-0.581082
-0.439599
-0.389296
-0.404514
-0.445094
-0.452145
-0.385708
-0.220242
0.03866
0.365715
0.709627
1.0257
1.3068
1.56992
1.85326
2.17374
2.52407
2.85922
3.12881
3.31099
3.40526
3.44344
3.46902
3.53826
3.67487
3.87045
4.07096
4.21559
4.27676
4.25176
4.17535
4.09577
4.07599
4.14218
4.28418
4.44034
4.54139
4.55561
4.47944
4.35165
4.22675
4.17671
4.23391
4.39197
4.58871
4.75384
4.85513
4.87895
4.8323
-4.76113
-4.48443
-4.12411
-3.69155
-3.37216
-3.35979
-3.67015
-4.32254
-5.18707
-6.16495
-7.0071
-7.62677
-7.9229
-7.94198
-7.73463
-7.50519
-7.43927
-7.5317
-7.74344
-7.89334
-7.91134
-7.71189
-7.32115
-6.76813
-6.2
-5.7495
-5.40337
-5.12465
-4.77486
-4.31629
-3.7342
-3.14458
-2.67431
-2.34446
-2.17248
-2.08707
-2.03323
-1.87583
-1.5856
-1.15839
-0.718422
-0.400714
-0.236491
-0.25322
-0.387463
-0.588399
-0.713085
-0.711505
-0.521937
-0.170941
0.313381
0.803936
1.18658
1.47342
1.69821
1.9877
2.37541
2.87329
3.36433
3.72048
3.92021
3.94556
3.87506
3.77151
3.78886
3.96263
4.30089
4.6616
4.8911
4.96071
4.84698
4.63783
4.4032
4.31703
4.41858
4.7161
5.04837
5.24117
5.26135
5.08181
4.80034
4.49532
4.36251
4.44988
4.77445
5.16949
5.46015
5.63284
5.67029
5.64783
-5.69554
-5.13933
-4.57985
-3.62862
-2.80995
-2.69893
-3.03608
-4.08575
-5.3863
-7.07958
-8.32356
-9.27013
-9.52828
-9.38883
-8.69567
-8.02263
-7.91483
-8.12018
-8.74049
-9.11233
-9.32576
-9.06009
-8.52049
-7.57145
-6.63912
-6.12642
-5.82166
-5.78116
-5.4788
-4.97087
-4.06741
-3.1289
-2.52719
-2.1349
-2.10755
-2.17879
-2.4152
-2.32743
-1.9927
-1.24532
-0.454532
-0.00048634
0.225896
0.0506924
-0.2759
-0.843151
-1.15767
-1.30997
-1.05824
-0.574838
0.249608
1.05104
1.48268
1.72654
1.7304
1.9777
2.41529
3.22915
4.06032
4.53396
4.77697
4.62028
4.35059
3.89614
3.81036
4.00961
4.69502
5.43714
5.79275
5.90455
5.57543
5.13285
4.49269
4.28357
4.40861
5.09383
5.8531
6.18544
6.25067
5.82696
5.27902
4.51203
4.22748
4.32059
5.05188
5.89707
6.33295
6.60202
6.54471
6.63024
-7.13266
-5.79844
-5.59927
-3.37471
-1.22875
-1.3928
-1.37606
-3.48778
-5.02006
-8.64128
-10.0684
-11.9049
-11.7063
-11.6331
-9.62775
-7.72617
-7.93948
-8.11116
-10.0954
-10.5595
-11.4301
-10.8028
-10.3094
-8.35066
-6.47389
-6.20382
-5.85935
-6.81468
-6.47872
-6.19489
-4.45094
-2.628
-2.0783
-1.39963
-1.90047
-2.0325
-3.26381
-3.13446
-2.99374
-1.39441
0.294662
0.727981
1.26692
0.572936
0.182521
-1.46151
-1.83551
-2.48983
-1.92768
-1.46932
0.219536
1.83129
2.04979
2.32583
1.41262
1.69424
1.91402
3.56075
5.27192
5.68031
6.21001
5.45844
5.0929
3.49065
3.42215
3.35735
5.00829
6.77011
7.04633
7.48419
6.4681
5.91327
3.96236
3.76981
3.59285
5.36583
7.27345
7.51524
7.94496
6.75189
6.07407
3.83494
3.54956
3.27316
5.16609
7.21482
7.44669
8.04203
7.21436
7.91052
-9.9784
-4.82295
-9.53504
-3.00743
3.67898
-0.347004
3.34891
-3.72421
-1.6458
-13.3626
-11.2236
-17.4702
-13.7037
-16.6597
-10.4104
-4.38431
-8.0241
-5.49205
-13.6394
-11.4211
-15.6917
-12.3524
-14.2084
-9.01182
-3.99495
-6.38828
-4.02522
-9.7076
-7.40342
-9.52142
-4.94804
-0.293482
-1.81491
1.03437
-2.22429
-0.303026
-6.07159
-3.95763
-6.09496
-1.67245
2.85247
1.30471
4.08375
0.65838
2.44654
-3.90843
-2.10933
-5.42108
-2.64724
-4.13531
0.301015
4.61834
2.53457
4.63828
-0.625178
1.50044
-0.64151
3.80023
8.36018
6.65268
9.48884
5.74139
7.61682
0.877229
3.02936
0.235143
5.16266
10.2431
8.06796
11.1583
6.6974
8.70485
0.90082
3.23444
-0.0299388
5.44476
11.0934
8.57525
11.9769
6.93575
9.11827
0.345384
2.85955
-0.897183
5.05681
11.1497
8.03786
11.532
5.69059
10.206
-19.8578
10.3619
-29.6559
-2.86848
24.013
-10.4202
23.5818
-17.1383
21.5941
-38.0357
-0.30318
-37.454
-6.01992
-34.9415
-10.8713
12.877
-16.9957
12.5059
-32.1093
-2.9384
-30.9111
-6.42057
-28.2625
-9.41389
9.15508
-13.4216
9.39474
-24.1009
-1.95987
-22.4834
-5.56181
10.9347
-7.84519
12.264
-10.0071
12.5
-20.2303
1.34106
-18.6426
-2.09811
14.1547
-4.3494
15.8347
-6.76403
16.4364
-18.0978
4.97598
-17.1163
2.76967
-15.3333
0.552992
16.6221
-3.01157
17.5586
-13.3043
7.45093
-12.6787
3.86833
20.4724
1.08091
22.2468
-2.07393
22.5451
-14.5417
9.75791
-14.0079
5.09527
24.1627
1.50568
25.7047
-2.38934
25.6234
-16.7605
10.7586
-16.2386
5.27153
26.6722
1.10916
28.1648
-3.28396
27.9367
-19.3989
11.1982
-19.0523
4.74624
28.3379
-0.884669
28.4638
-10.7483
18.958
28941.4
28899.1
28856.4
28813.3
28769.9
28726.1
28682
28637.7
28593.1
28548.3
28503.4
28458.4
28413.2
28367.9
28322.7
0.620673
0.592053
0.558123
0.519625
0.47752
0.432837
0.386557
0.339525
0.292404
0.245653
0.199543
0.154178
0.109529
0.0654621
0.0217759
1.04055
0.992453
0.935112
0.869919
0.798624
0.72308
0.64502
0.56591
0.486871
0.408664
0.33171
0.256149
0.181894
0.108685
0.0361504
1.47042
1.40207
1.31993
1.22629
1.12395
1.01582
0.904517
0.792215
0.680506
0.570421
0.462487
0.356819
0.253214
0.151236
0.0502932
1.9152
1.82531
1.71611
1.59121
1.45495
1.3116
1.16492
1.01785
0.87246
0.729986
0.590971
0.455411
0.3229
0.192748
0.0640806
2.38134
2.26777
2.1279
1.96743
1.79292
1.61061
1.42562
1.24174
1.06144
0.886045
0.715963
0.550929
0.390213
0.23277
0.0773602
2.87736
2.73654
2.56025
2.35763
2.13864
1.91218
1.68509
1.46195
1.24545
1.03674
0.835864
0.6421
0.454233
0.270746
0.0899473
3.41498
3.24096
3.01908
2.76428
2.49183
2.21432
1.94046
1.6754
1.42157
1.17953
0.948604
0.727337
0.513848
0.306022
0.101625
4.01106
3.79371
3.51122
3.18892
2.85036
2.51291
2.18697
1.87747
1.58577
1.31112
1.05162
0.804751
0.567772
0.33785
0.112149
4.69053
4.41219
4.04372
3.63036
3.20838
2.80041
2.41718
2.06169
1.73281
1.42747
1.14191
0.872219
0.614602
0.365435
0.121262
5.49321
5.12049
4.62088
4.08038
3.55286
3.06371
2.61997
2.21941
1.85626
1.52395
1.21624
0.927552
0.652937
0.387998
0.128713
6.49761
5.95376
5.23737
4.51583
3.85852
3.28182
2.77983
2.33984
1.94887
1.59577
1.27149
0.968743
0.681551
0.40488
0.134296
7.9019
6.9602
5.85963
4.88586
4.08278
3.42509
2.87778
2.4113
2.00359
1.63872
1.30515
0.994321
0.699606
0.415653
0.137879
10.2394
8.12544
6.35677
5.08528
4.16137
3.45795
2.89496
2.42402
2.01543
1.6503
1.31601
1.00372
0.706857
0.420222
0.13944
14.7259
8.94413
6.35623
4.93681
4.01933
3.3505
2.82019
2.37439
1.98377
1.63094
1.30478
0.997633
0.703834
0.418914
0.139086
-0.135448
-0.408183
-0.686538
-0.974612
-1.27711
-1.59971
-1.94976
-2.33726
-2.7769
-3.29191
-3.92271
-4.74817
-5.94473
-7.97067
-12.1952
-0.131984
-0.397496
-0.667705
-0.945948
-1.23589
-1.54172
-1.86834
-2.22171
-2.60903
-3.03873
-3.51842
-4.04482
-4.55721
-4.72371
-2.92597
-0.12744
-0.38353
-0.643265
-0.909117
-1.1836
-1.46922
-1.7683
-2.08253
-2.41172
-2.75077
-3.08155
-3.35097
-3.40984
-2.84091
-0.502968
-0.122051
-0.367017
-0.614547
-0.86625
-1.12352
-1.38731
-1.65769
-1.93292
-2.20755
-2.46853
-2.68712
-2.80303
-2.69859
-2.18621
-1.18609
-0.116057
-0.348706
-0.582904
-0.819473
-1.05885
-1.30077
-1.54366
-1.78369
-2.01284
-2.21571
-2.36385
-2.40776
-2.27086
-1.86993
-1.24363
-0.109685
-0.329302
-0.549582
-0.770701
-0.992365
-1.21347
-1.43156
-1.64196
-1.83639
-2.0009
-2.11286
-2.13772
-2.02654
-1.70999
-1.01509
-0.103136
-0.309418
-0.515647
-0.721507
-0.92621
-1.1282
-1.32472
-1.51125
-1.68071
-1.82258
-1.9223
-1.96192
-1.92482
-1.81267
-1.71375
-0.0965758
-0.289555
-0.481939
-0.673074
-0.861884
-1.04665
-1.22475
-1.39233
-1.54413
-1.67352
-1.77343
-1.8392
-1.87516
-1.90599
-1.97591
-0.0901299
-0.270087
-0.449072
-0.626216
-0.800313
-0.969676
-1.132
-1.2843
-1.42307
-1.5449
-1.64822
-1.73703
-1.82894
-1.97205
-2.2829
-0.0838889
-0.251279
-0.417455
-0.581433
-0.741979
-0.897526
-1.04614
-1.18559
-1.3137
-1.42911
-1.53303
-1.63256
-1.74707
-1.92146
-2.26176
-0.0779122
-0.2333
-0.387336
-0.538994
-0.687067
-0.830132
-0.966571
-1.0947
-1.21308
-1.32122
-1.42081
-1.51756
-1.62351
-1.75549
-1.9036
-0.0722342
-0.216243
-0.358843
-0.499006
-0.63558
-0.767278
-0.89271
-1.0105
-1.1195
-1.21922
-1.31045
-1.39602
-1.48177
-1.57815
-1.70915
-0.0668706
-0.200149
-0.332017
-0.461472
-0.587429
-0.708715
-0.824094
-0.932331
-1.03229
-1.12306
-1.20393
-1.2742
-1.33258
-1.37659
-1.3965
-0.0618238
-0.185018
-0.306839
-0.426328
-0.54247
-0.654193
-0.760372
-0.859849
-0.951419
-1.0337
-1.10467
-1.16047
-1.19328
-1.19163
-1.1742
-0.0570867
-0.170826
-0.283254
-0.393469
-0.500531
-0.60346
-0.701238
-0.792792
-0.876939
-0.952151
-1.01587
-1.06254
-1.07784
-1.01748
-0.707565
-0.0526458
-0.157529
-0.26118
-0.362761
-0.461411
-0.556245
-0.646358
-0.730814
-0.808608
-0.878531
-0.938807
-0.986247
-1.01487
-1.0165
-1.00838
-0.0484836
-0.145071
-0.240517
-0.33405
-0.42489
-0.512249
-0.595341
-0.673396
-0.745684
-0.811561
-0.870579
-0.922871
-0.97057
-1.02215
-1.09984
-0.0445798
-0.133391
-0.221155
-0.307171
-0.390737
-0.471156
-0.547754
-0.619915
-0.687155
-0.749303
-0.80694
-0.862535
-0.923467
-1.00952
-1.16857
-0.0409128
-0.122422
-0.20298
-0.281956
-0.358721
-0.432658
-0.503183
-0.569785
-0.632102
-0.690125
-0.744643
-0.798364
-0.858811
-0.946057
-1.11557
-0.0374605
-0.112097
-0.185879
-0.258239
-0.328618
-0.396469
-0.461273
-0.522562
-0.57997
-0.633321
-0.682814
-0.729386
-0.77545
-0.825315
-0.874515
-0.0342011
-0.102349
-0.169737
-0.235861
-0.300224
-0.362339
-0.421738
-0.47797
-0.530594
-0.579136
-0.622922
-0.660623
-0.689372
-0.70489
-0.719673
-0.0311128
-0.0931149
-0.154447
-0.214668
-0.273341
-0.330039
-0.384341
-0.43582
-0.483995
-0.528195
-0.567163
-0.597932
-0.61242
-0.584835
-0.412094
-0.0281749
-0.0843303
-0.139904
-0.194513
-0.247782
-0.299345
-0.348842
-0.395903
-0.440103
-0.480834
-0.517008
-0.546399
-0.564627
-0.565458
-0.556849
-0.0253672
-0.0759348
-0.126005
-0.175251
-0.22336
-0.270029
-0.314972
-0.357913
-0.398566
-0.436589
-0.471482
-0.502474
-0.528846
-0.552497
-0.587427
-0.0226702
-0.0678702
-0.112652
-0.156744
-0.199891
-0.241855
-0.28243
-0.321449
-0.358803
-0.394471
-0.42859
-0.461615
-0.494857
-0.531583
-0.576527
-0.0200658
-0.0600815
-0.0997524
-0.138858
-0.177196
-0.21459
-0.250906
-0.286078
-0.320154
-0.353383
-0.386387
-0.420485
-0.458352
-0.50483
-0.565191
-0.0175372
-0.0525178
-0.0872206
-0.121471
-0.155112
-0.188019
-0.220116
-0.251407
-0.282037
-0.312399
-0.343346
-0.376612
-0.415773
-0.468294
-0.548374
-0.0150689
-0.0451328
-0.0749786
-0.104471
-0.133493
-0.161958
-0.189825
-0.217134
-0.244049
-0.270953
-0.298611
-0.328511
-0.363826
-0.412474
-0.498633
-0.0126472
-0.0378853
-0.0629578
-0.0877634
-0.112217
-0.136258
-0.159865
-0.183077
-0.206016
-0.228931
-0.252233
-0.276515
-0.302534
-0.330464
-0.351107
-0.0102599
-0.0307389
-0.0510985
-0.0712665
-0.091183
-0.110807
-0.130124
-0.149152
-0.167948
-0.186589
-0.205092
-0.223176
-0.23985
-0.253383
-0.267481
-0.00789626
-0.0236619
-0.039349
-0.0549108
-0.0703091
-0.0855181
-0.100526
-0.115334
-0.12994
-0.144297
-0.15816
-0.170683
-0.179296
-0.175781
-0.127071
-0.00554685
-0.0166261
-0.0276637
-0.0386357
-0.0495242
-0.0603181
-0.0710122
-0.0816008
-0.0920594
-0.102303
-0.112083
-0.120772
-0.127114
-0.129456
-0.129268
-0.00320307
-0.0096062
-0.0160015
-0.0223865
-0.0287631
-0.0351372
-0.0415166
-0.0479039
-0.0542822
-0.0605917
-0.0666937
-0.0723644
-0.0776533
-0.0847685
-0.105145
-0.000857099
-0.00257885
-0.00432429
-0.00611168
-0.00796291
-0.00990355
-0.0119611
-0.014159
-0.0165065
-0.018986
-0.0215403
-0.0240999
-0.0268431
-0.0307691
-0.0354738
0.00149832
0.00447756
0.00740361
0.0102383
0.0129394
0.0154593
0.0177456
0.0197444
0.0214084
0.0227113
0.0236747
0.0243955
0.0248682
0.0238816
0.0135084
0.00386991
0.0115833
0.019216
0.0267113
0.0340064
0.041031
0.047704
0.0539338
0.0596233
0.0646889
0.0691236
0.0731685
0.0776702
0.0851675
0.105898
0.00626387
0.0187569
0.0311446
0.0433526
0.0552995
0.0668922
0.0780203
0.0885498
0.0983193
0.107151
0.114913
0.121735
0.128466
0.137384
0.151444
0.00868582
0.0260156
0.0432182
0.0602042
0.0768757
0.0931202
0.108801
0.123742
0.137712
0.150399
0.161425
0.170479
0.177812
0.186145
0.20877
0.0111406
0.033374
0.0554618
0.0773023
0.0987849
0.119783
0.140142
0.159657
0.178038
0.194843
0.209376
0.220527
0.226515
0.225088
0.220842
0.0136325
0.0408446
0.0678962
0.0946765
0.121066
0.146932
0.172115
0.196404
0.219498
0.240903
0.25974
0.274271
0.28041
0.266091
0.185763
0.0161648
0.0484374
0.0805379
0.112349
0.143746
0.174598
0.204753
0.234027
0.262169
0.288781
0.313156
0.33395
0.348552
0.353019
0.352947
0.0187402
0.0561604
0.093399
0.130334
0.166839
0.202787
0.238047
0.27248
0.30594
0.338244
0.369115
0.39803
0.423778
0.443194
0.445897
0.0213609
0.0640197
0.106489
0.148642
0.190352
0.231495
0.271958
0.311653
0.350551
0.388734
0.426483
0.464405
0.503466
0.545055
0.59564
0.0240288
0.0720208
0.119816
0.167283
0.21429
0.260713
0.306444
0.351423
0.395698
0.439556
0.483776
0.53007
0.581462
0.640756
0.695836
0.0267453
0.0801683
0.133388
0.186266
0.238665
0.290449
0.341495
0.391724
0.441173
0.490161
0.53968
0.592279
0.654029
0.739473
0.888772
0.029512
0.0884668
0.147212
0.205605
0.263497
0.320733
0.377153
0.432608
0.487007
0.540435
0.5935
0.648218
0.710201
0.79394
0.93468
0.0323299
0.0969198
0.161298
0.225316
0.288815
0.351618
0.413518
0.474265
0.533549
0.590994
0.646228
0.699201
0.751315
0.808912
0.891379
0.0351994
0.105529
0.175648
0.245408
0.314644
0.383163
0.45072
0.516974
0.5814
0.643123
0.700577
0.750865
0.788665
0.806697
0.819801
0.0381199
0.114293
0.190263
0.265885
0.340998
0.415409
0.488863
0.560987
0.63116
0.698245
0.759955
0.811284
0.839773
0.807981
0.572362
0.0410895
0.123206
0.205133
0.286736
0.367867
0.448352
0.527966
0.606388
0.683094
0.757125
0.82659
0.887648
0.932774
0.950878
0.956279
0.0441051
0.132259
0.220242
0.307935
0.395211
0.481929
0.567929
0.653014
0.736914
0.819202
0.899106
0.975151
1.04457
1.10267
1.13924
0.0471625
0.141438
0.235565
0.329443
0.422966
0.516036
0.608562
0.700496
0.791881
0.882956
0.974339
1.06733
1.16429
1.26947
1.39698
0.0502565
0.150728
0.251075
0.351214
0.451062
0.550548
0.649637
0.748391
0.847092
0.94652
1.04849
1.15681
1.27834
1.42084
1.56607
0.0533817
0.160112
0.266743
0.373205
0.479431
0.585363
0.690977
0.796353
0.901827
1.00835
1.11827
1.23717
1.37788
1.57037
1.89362
0.056532
0.169572
0.282538
0.395377
0.508027
0.620424
0.732511
0.844278
0.955865
1.06783
1.18185
1.30247
1.4415
1.62918
1.94214
0.0597013
0.17909
0.298434
0.417696
0.536819
0.655725
0.774295
0.892355
1.00966
1.12592
1.2409
1.35503
1.47136
1.60106
1.77188
0.0628822
0.188645
0.314399
0.440126
0.565783
0.691284
0.816459
0.940982
1.06422
1.18491
1.30056
1.40615
1.49197
1.54443
1.59197
0.0660664
0.198212
0.330393
0.462619
0.594874
0.727091
0.859101
0.990527
1.12055
1.24742
1.36725
1.47105
1.53577
1.49129
1.06694
0.0692434
0.20776
0.346365
0.485105
0.62401
0.763065
0.902174
1.04107
1.1791
1.31484
1.44512
1.56315
1.65541
1.702
1.72912
0.0724012
0.217253
0.362252
0.507492
0.653058
0.799021
0.945418
1.09222
1.23927
1.38607
1.53151
1.6732
1.80678
1.92629
2.02351
0.0755263
0.226649
0.37798
0.529664
0.681848
0.834695
0.988402
1.14323
1.29961
1.45827
1.62054
1.78893
1.96797
2.16609
2.40768
0.0786047
0.235903
0.393472
0.5515
0.710191
0.869791
1.03062
1.19319
1.3584
1.52796
1.70534
1.8973
2.11592
2.37576
2.65327
0.0816224
0.244975
0.408653
0.572885
0.737919
0.904048
1.07166
1.24134
1.41417
1.59224
1.78002
1.98722
2.23528
2.57322
3.12628
0.0845667
0.253824
0.423456
0.593722
0.764898
0.93729
1.11127
1.28733
1.46631
1.6498
1.84125
2.04879
2.29225
2.62132
3.16425
0.087426
0.262417
0.437825
0.613937
0.791045
0.969447
1.14944
1.33131
1.51534
1.70183
1.89133
2.08548
2.28978
2.52096
2.81291
0.0901901
0.270722
0.451712
0.633469
0.816304
1.00051
1.18632
1.37381
1.56267
1.75178
1.93819
2.11515
2.26865
2.37844
2.48923
0.0928495
0.278712
0.46507
0.652259
0.840619
1.03047
1.22205
1.41536
1.60985
1.80362
1.99164
2.16115
2.27788
2.23527
1.61784
0.095396
0.286362
0.477854
0.670241
0.863907
1.05924
1.25658
1.45611
1.65753
1.85944
2.05796
2.24382
2.39778
2.4913
2.5647
0.0978223
0.293647
0.490021
0.68734
0.886044
1.08662
1.28961
1.49554
1.70486
1.91764
2.13307
2.34868
2.55966
2.76134
2.95573
0.100124
0.300552
0.501533
0.703481
0.906884
1.11234
1.32059
1.53264
1.7498
1.97399
2.20808
2.45676
2.72802
3.03644
3.41803
0.102301
0.307074
0.512375
0.718615
0.926303
1.13611
1.34895
1.56618
1.78987
2.02346
2.27296
2.54918
2.87057
3.26075
3.69948
0.104361
0.31323
0.522566
0.732744
0.944255
1.15777
1.37427
1.59524
1.82306
2.06188
2.3193
2.61024
2.96535
3.45136
4.23065
0.106316
0.319063
0.532171
0.745948
0.960813
1.17736
1.39649
1.61953
1.84862
2.08737
2.34236
2.62673
2.96923
3.4383
4.21215
0.108193
0.324644
0.54131
0.758395
0.976199
1.19517
1.41598
1.63961
1.86747
2.10159
2.34502
2.60287
2.88521
3.21358
3.61448
0.110022
0.330073
0.550157
0.770341
0.99077
1.2117
1.43351
1.65675
1.88196
2.10933
2.33767
2.56201
2.7692
2.93851
3.12957
0.111847
0.335479
0.558931
0.782113
1.00499
1.2276
1.45006
1.67252
1.89494
2.11638
2.33308
2.53306
2.67949
2.64831
1.93821
0.113715
0.341007
0.567887
0.794093
1.01939
1.24359
1.46658
1.6883
1.90859
2.12672
2.34008
2.54129
2.71311
2.82958
2.94568
0.115678
0.346819
0.577307
0.806697
1.03454
1.26042
1.48399
1.70507
1.92373
2.14035
2.35552
2.5699
2.78515
3.01108
3.29056
0.11779
0.35308
0.587483
0.820365
1.05105
1.27883
1.5031
1.72349
1.94027
2.15498
2.37148
2.59789
2.84973
3.15538
3.56532
0.120103
0.359953
0.598709
0.835552
1.06955
1.29968
1.5249
1.74441
1.95824
2.16833
2.38055
2.60819
2.87693
3.22721
3.68741
0.122661
0.367582
0.611255
0.852701
1.09073
1.32392
1.55063
1.76925
1.9788
2.18018
2.37887
2.58993
2.84747
3.22268
3.86134
0.125495
0.376072
0.625339
0.872207
1.11526
1.35263
1.58195
1.80038
2.00499
2.19388
2.36857
2.53934
2.73626
3.03514
3.64117
0.128616
0.385464
0.641077
0.894347
1.14371
1.38692
1.62081
1.84106
2.04209
2.2174
2.36095
2.47055
2.5542
2.63427
2.69845
0.132
0.395706
0.65843
0.91918
1.1764
1.42764
1.66911
1.89506
2.09701
2.26296
2.37687
2.41973
2.37461
2.24438
2.13217
0.135586
0.406619
0.677139
0.946442
1.21321
1.47511
1.72815
1.96567
2.1769
2.34461
2.44211
2.42996
2.25409
1.84192
1.03331
0.139264
0.41788
0.696673
0.975433
1.25337
1.5287
1.7979
2.0545
2.28697
2.475
2.58346
2.55383
2.29766
1.71472
0.808028
0.142875
0.429005
0.716209
1.00496
1.29531
1.5865
1.87635
2.16005
2.42787
2.66062
2.82068
2.83498
2.56811
1.81228
0.502882
0.146219
0.439373
0.734646
1.03335
1.33662
1.64518
1.95901
2.27658
2.5931
2.89672
3.15912
3.31134
3.17807
2.29417
-0.585606
0.149062
0.448255
0.750674
1.05854
1.3742
1.70013
2.03903
2.39379
2.76727
3.16145
3.57407
3.98592
4.30919
4.16194
1.81998
0.151158
0.454881
0.762891
1.07829
1.40458
1.74601
2.10798
2.49795
2.92706
3.41341
3.98963
4.72205
5.76683
7.55324
11.4347
11.1886
7.1935
5.40418
4.38214
3.67948
3.13476
2.67999
2.28202
1.92257
1.59046
1.27827
0.980652
0.693487
0.413374
0.137346
1.1793
3.68319
3.8966
3.61765
3.24416
2.86758
2.50799
2.16793
1.84555
1.53809
1.24278
0.957062
0.678583
0.40516
0.134724
-1.29245
1.76354
2.73078
2.91867
2.81093
2.58856
2.32242
2.04154
1.75814
1.47724
1.20059
0.928412
0.660145
0.394855
0.131411
-0.0428006
1.29427
2.10605
2.42488
2.45725
2.33995
2.14707
1.91687
1.66895
1.41338
1.15526
0.897008
0.639615
0.383254
0.127659
0.218845
1.18967
1.82355
2.12996
2.20747
2.14382
1.99763
1.80446
1.58502
1.35126
1.10997
0.864977
0.618344
0.371108
0.12371
0.538993
1.31897
1.7684
1.99391
2.05571
2.00497
1.8808
1.71025
1.511
1.29431
1.06721
0.834052
0.597472
0.35906
0.119773
1.49483
1.67773
1.86871
1.97148
1.98205
1.91711
1.79616
1.63592
1.44905
1.24455
1.02863
0.805475
0.577852
0.34761
0.11601
2.00033
2.03083
2.03022
2.01304
1.96081
1.8681
1.73878
1.58006
1.39929
1.20268
0.99505
0.779974
0.560035
0.337094
0.112535
2.86345
2.40546
2.20322
2.07887
1.96764
1.84449
1.70178
1.53949
1.3605
1.16843
0.966612
0.757831
0.544287
0.327694
0.109411
3.09392
2.60243
2.32207
2.13556
1.9827
1.83445
1.67836
1.51047
1.33078
1.14092
0.942985
0.738976
0.530644
0.31946
0.106661
3.0351
2.65274
2.37571
2.16883
1.99452
1.82981
1.66312
1.48962
1.30809
1.119
0.923555
0.723106
0.518972
0.312341