/*--------------------------------*- C++ -*----------------------------------*\
| =========                 |                                                 |
| \\      /  F ield         | OpenFOAM: The Open Source CFD Toolbox           |
|  \\    /   O peration     | Version:  5.x                                   |
|   \\  /    A nd           | Web:      www.OpenFOAM.org                      |
|    \\/     M anipulation  |                                                 |
\*---------------------------------------------------------------------------*/
FoamFile
{
    version     2.0;
    format      ascii;
    class       volScalarField;
    location    "2.6";
    object      T;
}
// * * * * * * * * * * * * * * * * * * * * * * * * * * * * * * * * * * * * * //

dimensions      [0 0 0 1 0 0 0];

internalField   nonuniform List<scalar> 
6300
(
322.758
322.274
321.791
321.308
320.826
320.346
319.867
319.39
318.915
318.443
317.973
317.506
317.042
316.582
316.126
322.758
322.274
321.79
321.307
320.825
320.344
319.865
319.388
318.913
318.44
317.97
317.503
317.039
316.579
316.122
322.758
322.273
321.789
321.305
320.823
320.341
319.862
319.384
318.908
318.435
317.964
317.497
317.032
316.571
316.114
322.757
322.272
321.787
321.302
320.819
320.337
319.856
319.377
318.901
318.427
317.955
317.487
317.022
316.561
316.103
322.757
322.27
321.784
321.298
320.814
320.331
319.849
319.369
318.891
318.416
317.943
317.474
317.008
316.546
316.088
322.756
322.268
321.78
321.294
320.808
320.323
319.84
319.358
318.879
318.402
317.928
317.458
316.991
316.527
316.068
322.755
322.266
321.776
321.288
320.8
320.314
319.829
319.345
318.864
318.386
317.91
317.438
316.969
316.505
316.045
322.754
322.263
321.772
321.281
320.792
320.303
319.816
319.33
318.847
318.366
317.889
317.414
316.944
316.478
316.017
322.753
322.26
321.766
321.274
320.782
320.291
319.801
319.313
318.827
318.344
317.864
317.387
316.914
316.447
315.985
322.752
322.256
321.761
321.266
320.771
320.278
319.785
319.294
318.805
318.318
317.835
317.355
316.88
316.41
315.947
322.751
322.252
321.754
321.257
320.759
320.263
319.767
319.273
318.781
318.29
317.802
317.318
316.839
316.367
315.903
322.75
322.249
321.748
321.247
320.747
320.248
319.749
319.251
318.754
318.259
317.766
317.277
316.793
316.316
315.849
322.748
322.244
321.741
321.238
320.734
320.231
319.729
319.227
318.726
318.225
317.727
317.23
316.739
316.255
315.784
322.747
322.24
321.734
321.228
320.721
320.215
319.709
319.202
318.696
318.19
317.684
317.179
316.677
316.18
315.699
322.745
322.236
321.727
321.218
320.708
320.198
319.688
319.178
318.667
318.155
317.641
317.126
316.609
316.09
315.579
315.71
315.336
314.964
314.595
314.23
313.867
313.508
313.152
312.799
312.451
312.106
311.765
311.428
311.095
310.767
310.443
310.124
309.809
309.498
309.192
308.89
308.593
308.3
308.01
307.725
307.444
307.166
306.891
306.62
306.352
306.086
305.823
305.563
305.304
305.048
304.793
304.54
304.288
304.038
303.788
303.54
303.292
303.045
302.798
302.552
302.307
302.061
301.815
301.569
301.323
301.077
300.83
300.582
300.334
300.084
299.833
299.581
299.327
299.071
298.814
298.554
298.293
298.029
297.762
297.493
297.222
296.948
296.671
296.391
296.109
295.823
295.534
295.243
294.948
294.65
294.349
294.045
293.737
293.427
293.113
292.796
292.475
292.152
291.825
291.495
291.161
290.825
290.485
290.142
289.796
315.707
315.332
314.96
314.591
314.225
313.862
313.503
313.147
312.794
312.445
312.1
311.759
311.422
311.089
310.761
310.437
310.117
309.802
309.492
309.186
308.884
308.587
308.294
308.005
307.72
307.438
307.161
306.887
306.616
306.348
306.082
305.82
305.559
305.301
305.045
304.791
304.538
304.286
304.036
303.787
303.538
303.291
303.044
302.798
302.552
302.306
302.061
301.815
301.57
301.324
301.078
300.831
300.583
300.335
300.085
299.835
299.583
299.329
299.074
298.816
298.557
298.296
298.032
297.766
297.497
297.226
296.952
296.675
296.395
296.113
295.827
295.539
295.247
294.952
294.654
294.353
294.049
293.742
293.431
293.117
292.8
292.48
292.156
291.83
291.499
291.166
290.829
290.49
290.147
289.8
315.699
315.324
314.951
314.582
314.216
313.853
313.493
313.136
312.783
312.434
312.089
311.747
311.41
311.077
310.748
310.424
310.104
309.789
309.479
309.173
308.872
308.575
308.282
307.993
307.709
307.428
307.151
306.877
306.607
306.34
306.075
305.813
305.553
305.295
305.04
304.786
304.533
304.282
304.033
303.784
303.536
303.289
303.043
302.797
302.551
302.306
302.061
301.815
301.57
301.325
301.079
300.833
300.586
300.338
300.089
299.839
299.587
299.334
299.079
298.822
298.563
298.302
298.039
297.773
297.504
297.233
296.959
296.683
296.403
296.121
295.836
295.547
295.256
294.961
294.663
294.362
294.058
293.751
293.44
293.127
292.809
292.489
292.166
291.839
291.509
291.175
290.838
290.499
290.155
289.809
315.687
315.311
314.939
314.569
314.202
313.839
313.478
313.121
312.768
312.418
312.071
311.729
311.391
311.058
310.729
310.405
310.085
309.77
309.46
309.154
308.853
308.556
308.264
307.976
307.692
307.412
307.136
306.863
306.594
306.327
306.064
305.803
305.544
305.287
305.032
304.779
304.527
304.277
304.028
303.78
303.533
303.286
303.04
302.795
302.55
302.305
302.06
301.816
301.571
301.326
301.081
300.835
300.589
300.342
300.094
299.844
299.593
299.341
299.087
298.831
298.572
298.312
298.049
297.783
297.515
297.245
296.971
296.695
296.416
296.133
295.848
295.56
295.269
294.974
294.677
294.376
294.072
293.764
293.454
293.14
292.823
292.503
292.179
291.852
291.522
291.189
290.852
290.512
290.169
289.822
315.671
315.295
314.922
314.552
314.185
313.82
313.459
313.101
312.746
312.395
312.048
311.705
311.367
311.033
310.703
310.379
310.059
309.744
309.434
309.128
308.828
308.532
308.24
307.953
307.67
307.391
307.116
306.845
306.577
306.311
306.049
305.789
305.531
305.276
305.022
304.77
304.519
304.27
304.022
303.774
303.528
303.282
303.037
302.792
302.548
302.304
302.06
301.816
301.572
301.328
301.084
300.839
300.594
300.348
300.1
299.852
299.602
299.351
299.097
298.842
298.584
298.324
298.062
297.797
297.53
297.26
296.987
296.711
296.432
296.15
295.865
295.577
295.286
294.992
294.694
294.394
294.09
293.783
293.472
293.158
292.841
292.521
292.198
291.871
291.541
291.207
290.87
290.53
290.186
289.839
315.651
315.275
314.901
314.53
314.163
313.797
313.435
313.076
312.72
312.368
312.019
311.675
311.336
311.001
310.671
310.346
310.026
309.711
309.401
309.096
308.796
308.5
308.21
307.924
307.642
307.365
307.091
306.821
306.555
306.291
306.03
305.772
305.516
305.262
305.009
304.758
304.509
304.261
304.014
303.768
303.522
303.277
303.033
302.789
302.545
302.302
302.059
301.816
301.573
301.33
301.087
300.843
300.599
300.355
300.109
299.862
299.613
299.363
299.11
298.856
298.6
298.341
298.079
297.815
297.548
297.279
297.006
296.731
296.453
296.171
295.886
295.599
295.308
295.014
294.716
294.416
294.112
293.805
293.495
293.181
292.864
292.544
292.221
291.894
291.564
291.23
290.893
290.553
290.209
289.862
315.627
315.25
314.876
314.505
314.136
313.77
313.407
313.046
312.688
312.334
311.984
311.639
311.298
310.962
310.631
310.306
309.985
309.67
309.361
309.056
308.757
308.462
308.173
307.889
307.609
307.333
307.061
306.793
306.529
306.267
306.008
305.752
305.498
305.245
304.994
304.745
304.497
304.25
304.005
303.76
303.515
303.272
303.028
302.785
302.543
302.3
302.058
301.816
301.574
301.332
301.091
300.849
300.606
300.363
300.119
299.873
299.626
299.377
299.127
298.874
298.618
298.36
298.1
297.837
297.57
297.302
297.03
296.755
296.477
296.196
295.912
295.625
295.334
295.04
294.743
294.443
294.139
293.833
293.522
293.209
292.892
292.572
292.248
291.921
291.591
291.258
290.921
290.581
290.237
289.889
315.599
315.222
314.848
314.476
314.107
313.74
313.374
313.012
312.652
312.295
311.943
311.595
311.253
310.916
310.584
310.258
309.938
309.623
309.313
309.009
308.71
308.417
308.129
307.847
307.569
307.295
307.026
306.76
306.498
306.239
305.982
305.728
305.476
305.226
304.977
304.73
304.483
304.238
303.994
303.751
303.508
303.266
303.023
302.781
302.539
302.297
302.056
301.815
301.575
301.334
301.094
300.854
300.614
300.373
300.13
299.887
299.642
299.395
299.146
298.895
298.641
298.384
298.124
297.862
297.597
297.329
297.058
296.784
296.507
296.226
295.942
295.655
295.364
295.071
294.774
294.474
294.171
293.865
293.555
293.241
292.924
292.604
292.28
291.954
291.624
291.291
290.954
290.614
290.269
289.921
315.566
315.189
314.815
314.444
314.074
313.706
313.339
312.973
312.61
312.25
311.895
311.544
311.2
310.861
310.529
310.203
309.882
309.567
309.257
308.954
308.656
308.364
308.078
307.798
307.523
307.252
306.985
306.722
306.463
306.207
305.953
305.702
305.453
305.205
304.958
304.713
304.468
304.225
303.982
303.741
303.5
303.259
303.018
302.777
302.536
302.294
302.054
301.814
301.575
301.336
301.098
300.861
300.622
300.383
300.144
299.902
299.66
299.415
299.168
298.919
298.667
298.411
298.152
297.891
297.627
297.36
297.09
296.817
296.541
296.261
295.977
295.69
295.399
295.106
294.81
294.51
294.208
293.902
293.592
293.278
292.961
292.64
292.317
291.99
291.661
291.329
290.993
290.653
290.308
289.959
315.528
315.152
314.779
314.409
314.039
313.67
313.301
312.932
312.564
312.199
311.839
311.485
311.138
310.798
310.466
310.139
309.819
309.503
309.193
308.89
308.593
308.302
308.019
307.742
307.47
307.203
306.939
306.679
306.423
306.17
305.921
305.673
305.427
305.182
304.938
304.694
304.451
304.21
303.969
303.73
303.492
303.253
303.013
302.773
302.532
302.29
302.05
301.811
301.573
301.337
301.102
300.867
300.632
300.396
300.158
299.92
299.68
299.439
299.195
298.948
298.697
298.443
298.185
297.924
297.66
297.395
297.126
296.855
296.58
296.3
296.017
295.729
295.438
295.145
294.849
294.551
294.249
293.944
293.634
293.32
293.002
292.681
292.357
292.031
291.703
291.372
291.037
290.698
290.353
290.004
315.485
315.11
314.74
314.372
314.004
313.635
313.263
312.888
312.514
312.141
311.774
311.415
311.065
310.725
310.393
310.068
309.747
309.431
309.121
308.816
308.52
308.231
307.951
307.678
307.411
307.147
306.887
306.631
306.378
306.13
305.885
305.642
305.401
305.159
304.916
304.674
304.432
304.192
303.955
303.719
303.484
303.247
303.009
302.769
302.527
302.285
302.045
301.806
301.57
301.337
301.106
300.875
300.643
300.41
300.175
299.939
299.703
299.466
299.226
298.982
298.733
298.479
298.221
297.96
297.697
297.433
297.167
296.898
296.625
296.346
296.062
295.773
295.481
295.187
294.892
294.596
294.297
293.992
293.683
293.367
293.048
292.725
292.4
292.075
291.749
291.421
291.088
290.75
290.406
290.056
315.433
315.062
314.697
314.335
313.972
313.603
313.227
312.845
312.46
312.076
311.699
311.332
310.979
310.639
310.311
309.989
309.67
309.353
309.038
308.732
308.434
308.148
307.873
307.606
307.346
307.088
306.831
306.577
306.328
306.084
305.846
305.61
305.374
305.135
304.894
304.652
304.41
304.172
303.938
303.707
303.477
303.245
303.008
302.768
302.524
302.279
302.036
301.797
301.563
301.334
301.109
300.884
300.656
300.425
300.192
299.96
299.728
299.496
299.262
299.022
298.775
298.522
298.262
297.999
297.736
297.474
297.212
296.948
296.678
296.4
296.114
295.822
295.527
295.231
294.938
294.645
294.35
294.049
293.739
293.422
293.098
292.771
292.444
292.12
291.799
291.475
291.146
290.81
290.467
290.117
315.371
315.007
314.648
314.299
313.948
313.581
313.202
312.807
312.406
312
311.608
311.23
310.875
310.537
310.219
309.907
309.589
309.269
308.946
308.634
308.333
308.05
307.781
307.527
307.278
307.025
306.771
306.515
306.269
306.03
305.804
305.58
305.35
305.116
304.874
304.63
304.384
304.146
303.915
303.694
303.475
303.247
303.014
302.77
302.522
302.269
302.021
301.78
301.549
301.326
301.111
300.896
300.673
300.444
300.21
299.979
299.751
299.53
299.307
299.072
298.828
298.572
298.308
298.038
297.774
297.513
297.261
297.007
296.741
296.464
296.174
295.876
295.571
295.273
294.981
294.698
294.414
294.116
293.808
293.484
293.153
292.815
292.485
292.161
291.85
291.539
291.215
290.882
290.537
290.188
315.291
314.946
314.585
314.267
313.947
313.575
313.2
312.776
312.36
311.903
311.497
311.094
310.745
310.407
310.118
309.835
309.511
309.19
308.837
308.521
308.206
307.932
307.666
307.439
307.216
306.963
306.714
306.44
306.198
305.96
305.757
305.558
305.332
305.107
304.856
304.611
304.345
304.109
303.878
303.679
303.483
303.259
303.034
302.779
302.527
302.249
301.999
301.747
301.525
301.305
301.113
300.92
300.697
300.472
300.221
299.994
299.766
299.567
299.368
299.136
298.9
298.631
298.364
298.069
297.805
297.541
297.313
297.084
296.819
296.549
296.243
295.94
295.606
295.307
295.009
294.753
294.496
294.199
293.898
293.557
293.219
292.847
292.515
292.186
291.902
291.62
291.295
290.971
290.611
290.275
315.171
314.911
314.457
314.239
314.021
313.574
313.269
312.732
312.373
311.733
311.384
310.88
310.601
310.204
310.011
309.82
309.429
309.159
308.673
308.406
308.019
307.803
307.496
307.347
307.198
306.897
306.691
306.321
306.121
305.84
305.705
305.574
305.314
305.136
304.829
304.624
304.262
304.067
303.793
303.661
303.532
303.274
303.096
302.783
302.571
302.19
301.979
301.671
301.496
301.243
301.117
300.988
300.723
300.537
300.197
300.009
299.739
299.606
299.474
299.205
299.018
298.686
298.461
298.056
297.834
297.518
297.364
297.212
296.902
296.687
296.308
296.05
295.589
295.338
294.98
294.807
294.635
294.288
294.047
293.623
293.336
292.822
292.542
292.144
291.951
291.762
291.375
291.112
290.65
290.392
289.412
288.989
288.562
288.131
287.697
287.259
286.819
286.376
285.93
285.483
285.034
284.583
284.131
283.679
283.226
289.416
288.993
288.566
288.135
287.7
287.262
286.821
286.378
285.932
285.484
285.035
284.584
284.132
283.68
283.227
289.425
289.001
288.573
288.142
287.706
287.268
286.827
286.382
285.936
285.488
285.038
284.586
284.134
283.68
283.227
289.437
289.013
288.585
288.152
287.716
287.277
286.834
286.389
285.942
285.492
285.041
284.589
284.136
283.682
283.227
289.454
289.029
288.6
288.166
287.729
287.288
286.845
286.398
285.95
285.499
285.047
284.593
284.139
283.684
283.228
289.476
289.05
288.619
288.184
287.745
287.303
286.858
286.41
285.959
285.507
285.053
284.598
284.142
283.686
283.229
289.502
289.074
288.642
288.206
287.765
287.321
286.873
286.423
285.971
285.517
285.061
284.604
284.147
283.688
283.229
289.533
289.104
288.67
288.231
287.788
287.341
286.891
286.439
285.984
285.528
285.07
284.611
284.151
283.691
283.23
289.57
289.139
288.703
288.261
287.815
287.365
286.912
286.457
285.999
285.54
285.08
284.619
284.157
283.694
283.231
289.613
289.18
288.74
288.295
287.845
287.391
286.935
286.476
286.016
285.554
285.091
284.627
284.163
283.698
283.233
289.664
289.228
288.784
288.333
287.879
287.421
286.96
286.498
286.034
285.569
285.103
284.636
284.169
283.702
283.234
289.723
289.283
288.833
288.377
287.916
287.453
286.987
286.521
286.053
285.585
285.115
284.646
284.176
283.706
283.235
289.794
289.347
288.888
288.424
287.956
287.486
287.016
286.545
286.073
285.601
285.128
284.656
284.183
283.71
283.237
289.881
289.422
288.95
288.474
287.998
287.521
287.045
286.569
286.093
285.617
285.141
284.666
284.19
283.714
283.238
289.999
289.509
289.015
288.525
288.039
287.556
287.074
286.593
286.113
285.634
285.155
284.676
284.197
283.718
283.239
322.744
322.232
321.721
321.208
320.696
320.183
319.67
319.156
318.641
318.124
317.604
317.08
316.548
316
315.407
322.743
322.229
321.715
321.2
320.686
320.17
319.654
319.137
318.618
318.097
317.573
317.043
316.504
315.949
315.36
322.742
322.226
321.709
321.193
320.676
320.158
319.639
319.119
318.597
318.073
317.545
317.012
316.472
315.921
315.358
322.741
322.223
321.704
321.185
320.666
320.146
319.625
319.102
318.578
318.051
317.521
316.987
316.447
315.901
315.351
322.74
322.22
321.699
321.178
320.657
320.135
319.611
319.087
318.56
318.032
317.5
316.966
316.427
315.884
315.338
322.739
322.217
321.694
321.172
320.648
320.124
319.599
319.072
318.544
318.014
317.482
316.947
316.409
315.87
315.331
322.738
322.214
321.69
321.165
320.64
320.114
319.587
319.059
318.53
317.998
317.465
316.93
316.393
315.856
315.321
322.737
322.212
321.686
321.16
320.633
320.105
319.577
319.047
318.516
317.984
317.45
316.914
316.377
315.84
315.302
322.736
322.209
321.682
321.154
320.626
320.097
319.567
319.036
318.504
317.971
317.436
316.899
316.362
315.824
315.289
322.736
322.207
321.678
321.149
320.619
320.089
319.558
319.026
318.493
317.958
317.422
316.885
316.347
315.807
315.264
322.735
322.205
321.675
321.145
320.614
320.082
319.55
319.016
318.482
317.947
317.41
316.872
316.333
315.792
315.251
322.734
322.203
321.672
321.14
320.608
320.075
319.542
319.008
318.472
317.936
317.399
316.86
316.32
315.778
315.232
322.734
322.202
321.669
321.136
320.603
320.069
319.535
319
318.463
317.926
317.388
316.849
316.308
315.766
315.222
322.733
322.2
321.666
321.133
320.598
320.064
319.528
318.992
318.455
317.917
317.379
316.839
316.298
315.755
315.209
322.733
322.198
321.664
321.129
320.594
320.058
319.522
318.985
318.448
317.909
317.37
316.83
316.288
315.746
315.203
322.732
322.197
321.662
321.126
320.59
320.053
319.516
318.979
318.441
317.902
317.362
316.821
316.28
315.738
315.197
322.732
322.196
321.66
321.123
320.586
320.049
319.511
318.973
318.434
317.895
317.354
316.813
316.271
315.729
315.186
322.732
322.195
321.658
321.12
320.583
320.045
319.507
318.968
318.428
317.888
317.347
316.806
316.264
315.721
315.179
322.731
322.194
321.656
321.118
320.58
320.041
319.502
318.963
318.423
317.882
317.341
316.799
316.256
315.712
315.167
322.731
322.193
321.654
321.116
320.577
320.038
319.498
318.958
318.418
317.877
317.335
316.792
316.249
315.705
315.16
322.731
322.192
321.653
321.114
320.574
320.035
319.494
318.954
318.413
317.872
317.329
316.787
316.243
315.699
315.152
322.73
322.191
321.651
321.112
320.572
320.032
319.491
318.95
318.409
317.867
317.324
316.781
316.238
315.693
315.148
322.73
322.19
321.65
321.11
320.57
320.029
319.488
318.947
318.405
317.863
317.32
316.777
316.233
315.689
315.145
322.73
322.19
321.649
321.109
320.568
320.027
319.485
318.944
318.401
317.859
317.316
316.772
316.228
315.684
315.139
322.73
322.189
321.648
321.107
320.566
320.025
319.483
318.941
318.398
317.855
317.312
316.768
316.224
315.68
315.135
322.729
322.188
321.647
321.106
320.564
320.023
319.481
318.938
318.395
317.852
317.309
316.765
316.22
315.675
315.129
322.729
322.188
321.646
321.105
320.563
320.021
319.479
318.936
318.393
317.85
317.306
316.761
316.216
315.671
315.126
322.729
322.188
321.646
321.104
320.562
320.02
319.477
318.934
318.391
317.847
317.303
316.758
316.213
315.667
315.12
322.729
322.187
321.645
321.103
320.561
320.018
319.475
318.932
318.389
317.845
317.301
316.756
316.21
315.664
315.118
322.729
322.187
321.645
321.102
320.56
320.017
319.474
318.931
318.387
317.843
317.299
316.754
316.208
315.662
315.114
322.729
322.187
321.644
321.102
320.559
320.016
319.473
318.93
318.386
317.842
317.297
316.752
316.206
315.66
315.113
322.729
322.186
321.644
321.101
320.559
320.016
319.473
318.929
318.385
317.841
317.296
316.751
316.205
315.659
315.112
322.729
322.186
321.644
321.101
320.558
320.015
319.472
318.929
318.385
317.84
317.295
316.75
316.204
315.658
315.111
322.729
322.186
321.644
321.101
320.558
320.015
319.472
318.928
318.384
317.84
317.295
316.75
316.204
315.657
315.11
322.729
322.186
321.644
321.101
320.558
320.015
319.472
318.928
318.384
317.84
317.295
316.75
316.204
315.657
315.11
322.729
322.186
321.644
321.101
320.558
320.015
319.472
318.929
318.385
317.84
317.295
316.75
316.204
315.658
315.111
322.729
322.187
321.644
321.102
320.559
320.016
319.473
318.929
318.385
317.841
317.296
316.751
316.205
315.659
315.112
322.729
322.187
321.644
321.102
320.559
320.017
319.474
318.93
318.386
317.842
317.297
316.752
316.206
315.66
315.113
322.729
322.187
321.645
321.103
320.56
320.017
319.475
318.931
318.388
317.843
317.299
316.754
316.208
315.662
315.116
322.729
322.187
321.645
321.103
320.561
320.019
319.476
318.933
318.389
317.845
317.301
316.756
316.21
315.664
315.117
322.729
322.188
321.646
321.104
320.562
320.02
319.477
318.935
318.391
317.848
317.303
316.758
316.213
315.666
315.119
322.729
322.188
321.647
321.105
320.563
320.022
319.479
318.937
318.394
317.85
317.306
316.761
316.216
315.67
315.123
322.73
322.189
321.648
321.106
320.565
320.023
319.481
318.939
318.396
317.853
317.309
316.765
316.22
315.674
315.126
322.73
322.189
321.648
321.108
320.567
320.025
319.484
318.942
318.399
317.857
317.313
316.769
316.224
315.679
315.133
322.73
322.19
321.65
321.109
320.569
320.028
319.486
318.945
318.403
317.86
317.317
316.774
316.229
315.684
315.138
322.73
322.19
321.651
321.111
320.571
320.03
319.489
318.948
318.407
317.865
317.322
316.779
316.235
315.691
315.148
322.73
322.191
321.652
321.113
320.573
320.033
319.493
318.952
318.411
317.869
317.327
316.785
316.241
315.698
315.153
322.731
322.192
321.653
321.115
320.575
320.036
319.496
318.956
318.416
317.875
317.333
316.791
316.248
315.705
315.162
322.731
322.193
321.655
321.117
320.578
320.039
319.5
318.961
318.421
317.88
317.339
316.797
316.254
315.711
315.167
322.731
322.194
321.657
321.119
320.581
320.043
319.505
318.966
318.426
317.886
317.346
316.804
316.262
315.718
315.172
322.732
322.195
321.658
321.121
320.584
320.047
319.509
318.971
318.432
317.893
317.353
316.812
316.27
315.727
315.183
322.732
322.196
321.66
321.124
320.588
320.051
319.514
318.977
318.439
317.9
317.361
316.82
316.279
315.736
315.191
322.732
322.197
321.662
321.127
320.591
320.055
319.519
318.983
318.445
317.908
317.369
316.83
316.289
315.748
315.206
322.733
322.199
321.664
321.13
320.595
320.06
319.525
318.989
318.453
317.916
317.378
316.84
316.3
315.76
315.217
322.733
322.2
321.667
321.133
320.599
320.065
319.531
318.996
318.46
317.924
317.388
316.85
316.312
315.774
315.238
322.734
322.202
321.669
321.137
320.604
320.071
319.537
319.003
318.469
317.933
317.398
316.861
316.325
315.787
315.249
322.734
322.203
321.672
321.14
320.608
320.076
319.544
319.011
318.477
317.943
317.408
316.873
316.337
315.801
315.267
322.735
322.205
321.674
321.144
320.613
320.082
319.551
319.019
318.486
317.953
317.419
316.885
316.349
315.813
315.276
322.735
322.206
321.677
321.148
320.618
320.088
319.558
319.027
318.496
317.964
317.431
316.897
316.363
315.826
315.285
322.736
322.208
321.68
321.152
320.624
320.095
319.566
319.036
318.506
317.975
317.443
316.911
316.377
315.841
315.305
322.737
322.21
321.683
321.156
320.629
320.102
319.574
319.045
318.517
317.987
317.457
316.925
316.393
315.858
315.319
322.737
322.212
321.686
321.161
320.635
320.109
319.582
319.055
318.528
317.999
317.47
316.941
316.41
315.878
315.345
322.738
322.214
321.69
321.165
320.641
320.116
319.591
319.065
318.539
318.012
317.485
316.957
316.428
315.897
315.363
322.739
322.216
321.693
321.17
320.647
320.124
319.6
319.076
318.551
318.026
317.5
316.974
316.447
315.92
315.397
322.739
322.218
321.697
321.175
320.654
320.132
319.609
319.087
318.564
318.04
317.516
316.991
316.466
315.941
315.416
322.74
322.22
321.701
321.181
320.66
320.14
319.619
319.098
318.576
318.054
317.532
317.009
316.485
315.962
315.444
322.741
322.223
321.704
321.186
320.667
320.148
319.629
319.11
318.59
318.069
317.548
317.026
316.504
315.981
315.457
322.742
322.225
321.708
321.191
320.674
320.157
319.64
319.122
318.603
318.084
317.565
317.045
316.523
316
315.471
322.742
322.227
321.712
321.197
320.682
320.166
319.65
319.134
318.617
318.1
317.582
317.064
316.544
316.022
315.5
322.743
322.23
321.716
321.203
320.689
320.175
319.661
319.147
318.632
318.116
317.6
317.084
316.566
316.046
315.52
322.744
322.232
321.721
321.209
320.697
320.185
319.672
319.159
318.646
318.133
317.619
317.105
316.589
316.073
315.557
322.745
322.235
321.725
321.215
320.705
320.194
319.684
319.173
318.662
318.15
317.638
317.126
316.614
316.1
315.582
322.746
322.238
321.729
321.221
320.713
320.204
319.695
319.186
318.677
318.167
317.658
317.148
316.639
316.13
315.627
322.747
322.24
321.734
321.227
320.721
320.214
319.707
319.2
318.692
318.185
317.677
317.17
316.663
316.157
315.652
322.748
322.243
321.738
321.234
320.729
320.224
319.719
319.213
318.708
318.202
317.697
317.192
316.687
316.184
315.688
322.749
322.246
321.743
321.24
320.737
320.234
319.731
319.227
318.724
318.22
317.716
317.213
316.709
316.206
315.704
322.75
322.249
321.748
321.247
320.746
320.244
319.743
319.241
318.74
318.238
317.736
317.234
316.731
316.228
315.72
322.751
322.252
321.752
321.253
320.754
320.255
319.755
319.255
318.756
318.255
317.755
317.255
316.755
316.253
315.753
322.751
322.254
321.757
321.26
320.763
320.265
319.768
319.27
318.772
318.273
317.775
317.277
316.778
316.278
315.775
322.752
322.257
321.762
321.267
320.772
320.276
319.78
319.284
318.788
318.291
317.795
317.298
316.802
316.306
315.813
322.753
322.26
321.767
321.274
320.781
320.287
319.793
319.299
318.804
318.31
317.815
317.32
316.826
316.332
315.836
322.755
322.264
321.772
321.281
320.79
320.298
319.806
319.314
318.821
318.328
317.834
317.341
316.849
316.36
315.877
322.756
322.267
321.778
321.289
320.799
320.309
319.819
319.329
318.838
318.346
317.854
317.362
316.871
316.383
315.897
322.757
322.27
321.783
321.296
320.809
320.321
319.833
319.344
318.855
318.365
317.874
317.383
316.892
316.404
315.922
322.758
322.273
321.789
321.304
320.819
320.333
319.847
319.36
318.873
318.384
317.894
317.403
316.911
316.42
315.932
322.759
322.277
321.794
321.312
320.829
320.346
319.862
319.377
318.891
318.404
317.915
317.423
316.93
316.434
315.939
322.76
322.28
321.8
321.32
320.84
320.359
319.877
319.395
318.911
318.425
317.937
317.445
316.949
316.449
315.946
322.761
322.284
321.806
321.329
320.851
320.372
319.893
319.413
318.932
318.448
317.962
317.47
316.972
316.465
315.948
322.763
322.288
321.813
321.337
320.862
320.386
319.91
319.433
318.954
318.473
317.989
317.5
317.002
316.487
315.936
322.764
322.291
321.819
321.346
320.874
320.401
319.927
319.453
318.978
318.501
318.021
317.537
317.044
316.534
315.978
290.161
289.593
289.072
288.569
288.075
287.585
287.099
286.614
286.131
285.649
285.166
284.685
284.203
283.722
283.241
290.2
289.637
289.111
288.602
288.104
287.611
287.121
286.633
286.147
285.662
285.177
284.693
284.209
283.725
283.242
290.181
289.654
289.137
288.629
288.129
287.633
287.141
286.651
286.162
285.674
285.187
284.701
284.215
283.729
283.243
290.178
289.666
289.156
288.651
288.151
287.654
287.159
286.667
286.176
285.686
285.197
284.708
284.22
283.732
283.244
290.18
289.676
289.172
288.67
288.17
287.672
287.177
286.683
286.19
285.698
285.206
284.716
284.225
283.735
283.245
290.182
289.686
289.187
288.687
288.187
287.689
287.193
286.697
286.203
285.709
285.216
284.723
284.23
283.738
283.246
290.189
289.698
289.201
288.703
288.204
287.706
287.208
286.711
286.215
285.719
285.224
284.73
284.235
283.741
283.247
290.207
289.714
289.218
288.719
288.22
287.721
287.223
286.724
286.227
285.729
285.233
284.736
284.24
283.744
283.248
290.222
289.732
289.235
288.737
288.237
287.737
287.237
286.737
286.238
285.739
285.241
284.743
284.245
283.747
283.249
290.255
289.754
289.254
288.754
288.253
287.752
287.251
286.75
286.249
285.749
285.249
284.749
284.249
283.749
283.25
290.274
289.775
289.274
288.772
288.27
287.767
287.265
286.763
286.26
285.758
285.257
284.755
284.253
283.752
283.251
290.305
289.798
289.294
288.79
288.286
287.783
287.279
286.775
286.271
285.768
285.264
284.761
284.258
283.755
283.252
290.323
289.819
289.314
288.808
288.303
287.798
287.292
286.787
286.282
285.777
285.272
284.767
284.262
283.757
283.252
290.352
289.84
289.333
288.827
288.32
287.813
287.306
286.799
286.292
285.786
285.279
284.773
284.266
283.76
283.253
290.365
289.859
289.352
288.845
288.337
287.828
287.32
286.811
286.303
285.795
285.286
284.778
284.27
283.762
283.254
290.38
289.879
289.372
288.863
288.353
287.843
287.333
286.823
286.313
285.803
285.294
284.784
284.274
283.764
283.255
290.411
289.902
289.392
288.882
288.37
287.859
287.347
286.835
286.324
285.812
285.301
284.789
284.278
283.767
283.256
290.432
289.925
289.414
288.901
288.387
287.874
287.361
286.847
286.334
285.821
285.308
284.795
284.282
283.769
283.256
290.473
289.952
289.436
288.92
288.405
287.889
287.374
286.859
286.344
285.829
285.315
284.8
284.286
283.772
283.257
290.495
289.976
289.457
288.939
288.422
287.904
287.387
286.871
286.354
285.838
285.322
284.806
284.29
283.774
283.258
290.528
290.001
289.478
288.958
288.438
287.919
287.401
286.882
286.364
285.846
285.329
284.811
284.293
283.776
283.259
290.546
290.022
289.498
288.976
288.454
287.934
287.413
286.893
286.374
285.854
285.335
284.816
284.297
283.778
283.259
290.572
290.042
289.517
288.993
288.47
287.948
287.426
286.904
286.383
285.862
285.342
284.821
284.301
283.78
283.26
290.585
290.059
289.534
289.009
288.485
287.962
287.438
286.915
286.393
285.87
285.348
284.826
284.304
283.783
283.261
290.597
290.076
289.551
289.026
288.5
287.975
287.45
286.926
286.402
285.878
285.354
284.831
284.308
283.785
283.262
290.623
290.096
289.569
289.042
288.515
287.988
287.462
286.936
286.411
285.885
285.36
284.836
284.311
283.787
283.262
290.64
290.115
289.586
289.057
288.529
288.001
287.473
286.946
286.419
285.893
285.366
284.84
284.314
283.789
283.263
290.672
290.136
289.604
289.073
288.543
288.013
287.484
286.956
286.428
285.9
285.372
284.845
284.318
283.791
283.264
290.688
290.154
289.621
289.088
288.556
288.025
287.495
286.965
286.436
285.907
285.378
284.849
284.321
283.792
283.264
290.713
290.173
289.637
289.103
288.569
288.037
287.505
286.974
286.444
285.913
285.383
284.853
284.324
283.794
283.265
290.726
290.188
289.651
289.116
288.582
288.048
287.515
286.983
286.451
285.92
285.388
284.857
284.327
283.796
283.265
290.745
290.203
289.665
289.129
288.593
288.059
287.525
286.991
286.458
285.926
285.394
284.861
284.329
283.798
283.266
290.753
290.215
289.678
289.141
288.605
288.069
287.534
287
286.465
285.932
285.398
284.865
284.332
283.799
283.266
290.762
290.227
289.689
289.152
288.615
288.079
287.543
287.007
286.472
285.938
285.403
284.869
284.335
283.801
283.267
290.779
290.24
289.701
289.163
288.625
288.088
287.551
287.015
286.479
285.943
285.408
284.872
284.337
283.802
283.267
290.79
290.252
289.713
289.174
288.635
288.097
287.559
287.022
286.485
285.948
285.412
284.876
284.34
283.804
283.268
290.81
290.266
289.725
289.184
288.645
288.106
287.567