/*--------------------------------*- C++ -*----------------------------------*\
| =========                 |                                                 |
| \\      /  F ield         | OpenFOAM: The Open Source CFD Toolbox           |
|  \\    /   O peration     | Version:  5.x                                   |
|   \\  /    A nd           | Web:      www.OpenFOAM.org                      |
|    \\/     M anipulation  |                                                 |
\*---------------------------------------------------------------------------*/
FoamFile
{
    version     2.0;
    format      ascii;
    class       volScalarField;
    location    "0.1";
    object      gradTy;
}
// * * * * * * * * * * * * * * * * * * * * * * * * * * * * * * * * * * * * * //

dimensions      [0 -1 0 1 0 0 0];

internalField   nonuniform List<scalar> 
6300
(
32259.1
32177.5
32096.2
32015.2
31934.9
31855.4
31776.8
31699.4
31623.3
31548.8
31476
31405.1
31336.2
31269.7
31205.5
-0.122446
-0.368129
-0.616121
-0.867747
-1.124
-1.38542
-1.65188
-1.92244
-2.19523
-2.46729
-2.73458
-2.99207
-3.234
-3.45431
-3.64717
-0.203165
-0.610879
-1.02265
-1.44086
-1.86732
-2.30308
-2.74814
-3.20111
-3.65896
-4.1168
-4.56778
-5.00323
-5.41308
-5.78661
-6.11351
-0.282444
-0.849414
-1.4225
-2.00533
-2.60082
-3.21083
-3.83574
-4.47399
-5.12165
-5.77196
-6.41516
-7.0385
-7.62683
-8.16378
-8.63335
-0.359566
-1.08161
-1.81222
-2.55661
-3.31912
-4.10283
-4.90895
-5.73623
-6.58022
-7.43257
-8.28049
-9.10663
-9.88968
-10.6059
-11.2317
-0.433689
-1.30495
-2.18771
-3.0891
-4.01536
-4.9713
-5.95964
-6.98015
-8.02855
-9.09543
-10.1651
-11.2151
-12.2163
-13.1351
-13.9371
-0.503812
-1.51645
-2.544
-3.59593
-4.68085
-5.80603
-6.97653
-8.19418
-9.45608
-10.7528
-12.0665
-13.3691
-14.6218
-15.7773
-16.785
-0.56879
-1.71265
-2.87527
-4.06881
-5.30485
-6.59385
-7.94433
-9.36164
-10.846
-12.3901
-13.9754
-15.5689
-17.1202
-18.5627
-19.8203
-0.627351
-1.88968
-3.17487
-4.49813
-5.87448
-7.31838
-8.8431
-10.4594
-12.1732
-13.9826
-15.8721
-17.8063
-19.7227
-21.5276
-23.1039
-0.678131
-2.04336
-3.4356
-4.87321
-6.37498
-7.96012
-9.64787
-11.4565
-13.4014
-15.4909
-17.7196
-20.0567
-22.431
-24.7148
-26.7229
-0.719776
-2.16952
-3.65008
-5.18285
-6.79043
-8.49711
-10.3291
-12.3143
-14.4813
-16.8559
-19.4537
-22.2642
-25.2234
-28.1705
-30.8101
-0.751054
-2.26432
-3.81145
-5.41635
-7.10502
-8.90655
-10.8543
-12.987
-15.3497
-17.9932
-20.9696
-24.3169
-28.0205
-31.925
-35.5838
-0.770998
-2.32472
-3.91413
-5.56475
-7.30495
-9.1675
-11.1917
-13.4263
-15.9333
-18.793
-22.1088
-26.0066
-30.6085
-35.9153
-41.4238
-0.77904
-2.3489
-3.95466
-5.62222
-7.38072
-9.2645
-11.316
-13.5899
-16.1603
-19.1319
-22.66
-26.9848
-32.4827
-39.6933
-48.9264
-0.775131
-2.33666
-3.93251
-5.58747
-7.32947
-9.19162
-11.2151
-13.4538
-15.9821
-18.9094
-22.4087
-26.7824
-32.6353
-41.4377
-57.7846
31149
31099.4
31051.8
31006
30962.2
30920.4
30880.5
30842.6
30806.6
30772.5
30740.3
30709.9
30681.3
30654.3
30629
30605.3
30583
30562.2
30542.7
30524.5
30507.5
30491.6
30476.7
30462.9
30450
30437.9
30426.6
30416.1
30406.2
30397
30388.3
30380.1
30372.5
30365.2
30358.4
30351.8
30345.7
30339.7
30334.1
30328.6
30323.3
30318.1
30313.1
30308.1
30303.2
30298.3
30293.4
30288.4
30283.4
30278.2
30273
30267.6
30261.9
30256.1
30250
30243.5
30236.8
30229.6
30222.1
30214
30205.5
30196.4
30186.7
30176.3
30165.2
30153.3
30140.6
30127
30112.4
30096.7
30080
30062
30042.8
30022.3
30000.3
29976.9
29951.9
29925.2
29896.8
29866.6
29834.6
29800.7
29764.9
29727
29687.2
29645.4
29601.5
29555.7
29507.8
29458.1
-3.79424
-3.90312
-3.98589
-4.04205
-4.07185
-4.07615
-4.05628
-4.01388
-3.95081
-3.86903
-3.77058
-3.65758
-3.53219
-3.39663
-3.25311
-3.10377
-2.95066
-2.79565
-2.64039
-2.48631
-2.33462
-2.18628
-2.04207
-1.90258
-1.76822
-1.63929
-1.51594
-1.3982
-1.28604
-1.17932
-1.07788
-0.981467
-0.889819
-0.802631
-0.719578
-0.640314
-0.564482
-0.49172
-0.421663
-0.353948
-0.288215
-0.224107
-0.161264
-0.0993272
-0.037935
0.0232765
0.084671
0.14661
0.209452
0.27355
0.339253
0.406904
0.476847
0.549424
0.624976
0.703841
0.786359
0.872861
0.963675
1.05912
1.1595
1.2651
1.37618
1.49295
1.61555
1.74404
1.87838
2.01844
2.16392
2.31438
2.46921
2.62758
2.78844
2.95049
3.11214
3.27154
3.42659
3.57493
3.71403
3.84119
3.9536
4.04841
4.12276
4.17393
4.19945
4.19728
4.16595
4.1048
4.01407
3.89492
-6.36231
-6.54591
-6.68469
-6.77794
-6.82625
-6.83133
-6.79562
-6.72207
-6.61386
-6.47434
-6.30693
-6.11519
-5.90277
-5.6734
-5.43086
-5.1788
-4.92072
-4.65979
-4.3988
-4.14015
-3.88581
-3.63738
-3.39611
-3.16295
-2.93859
-2.72346
-2.51779
-2.32164
-2.1349
-1.95733
-1.78862
-1.62835
-1.47608
-1.33128
-1.19339
-1.06184
-0.936023
-0.815322
-0.699126
-0.58683
-0.477834
-0.371544
-0.267367
-0.164704
-0.0629507
0.0385011
0.140261
0.242936
0.347122
0.45341
0.562377
0.674596
0.790636
0.911067
1.03646
1.16737
1.30438
1.44804
1.5989
1.7575
1.92435
2.09996
2.28477
2.47915
2.68337
2.89758
3.12173
3.35561
3.59877
3.85051
4.10984
4.37545
4.64561
4.91817
5.1905
5.45949
5.72159
5.97282
6.20888
6.42521
6.61704
6.77949
6.90767
6.99681
7.04253
7.04114
6.98994
6.88763
6.73449
6.53252
-8.98952
-9.2509
-9.44669
-9.57611
-9.64053
-9.64289
-9.5872
-9.47797
-9.31992
-9.1178
-8.87647
-8.60087
-8.2962
-7.9678
-7.62112
-7.26154
-6.8941
-6.52339
-6.15339
-5.78744
-5.42827
-5.07803
-4.7384
-4.41065
-4.09568
-3.79405
-3.50603
-3.23163
-2.97065
-2.7227
-2.48731
-2.26386
-2.0517
-1.85007
-1.65819
-1.47522
-1.30029
-1.13252
-0.971046
-0.81502
-0.663605
-0.515979
-0.371316
-0.228784
-0.087535
0.0532904
0.194555
0.337115
0.481813
0.629469
0.78089
0.936869
1.0982
1.26567
1.44009
1.62226
1.81296
2.01299
2.22312
2.44412
2.67674
2.92171
3.17969
3.45128
3.73692
4.03686
4.35111
4.67942
5.02121
5.37559
5.74127
6.11649
6.49896
6.8857
7.27306
7.65664
8.03135
8.3915
8.73093
9.0431
9.3212
9.55817
9.74685
9.88012
9.95123
9.95433
9.88505
9.74109
9.52267
9.23271
-11.704
-12.0477
-12.3016
-12.4653
-12.5416
-12.5356
-12.4536
-12.3021
-12.0876
-11.8161
-11.4939
-11.1272
-10.7227
-10.2876
-9.82925
-9.35502
-8.87179
-8.38573
-7.90206
-7.42503
-6.95801
-6.50363
-6.0639
-5.64032
-5.23395
-4.84545
-4.47507
-4.12271
-3.78802
-3.47041
-3.16918
-2.8835
-2.61248
-2.35516
-2.11046
-1.87729
-1.65448
-1.44086
-1.23532
-1.03673
-0.844055
-0.656248
-0.472271
-0.29106
-0.111522
0.0674643
0.24703
0.428294
0.612348
0.800245
0.993008
1.19164
1.39714
1.61054
1.83286
2.06516
2.30845
2.56376
2.83209
3.11443
3.41178
3.72514
4.05547
4.40364
4.77033
5.15597
5.56067
5.98417
6.42585
6.88467
7.35915
7.84723
8.34614
8.85223
9.36081
9.86613
10.3615
10.8392
11.2912
11.7088
12.0831
12.4047
12.6639
12.8508
12.9556
12.9694
12.8852
12.6992
12.4112
12.0252
-14.5381
-14.9702
-15.2828
-15.4768
-15.5579
-15.5348
-15.4173
-15.2147
-14.9351
-14.5859
-14.174
-13.7067
-13.1924
-12.6402
-12.0598
-11.4612
-10.8535
-10.2447
-9.64135
-9.0485
-8.46996
-7.90862
-7.36667
-6.84578
-6.34712
-5.87139
-5.41877
-4.98898
-4.58139
-4.19512
-3.8292
-3.48255
-3.15407
-2.84252
-2.54659
-2.26484
-1.99578
-1.73793
-1.48984
-1.25019
-1.01771
-0.791182
-0.569381
-0.351029
-0.134778
0.0807794
0.297071
0.515506
0.737437
0.964142
1.19684
1.43671
1.68496
1.94283
2.2116
2.49257
2.78702
3.0962
3.42132
3.76358
4.12424
4.50463
4.90607
5.32983
5.77695
6.24812
6.7436
7.26317
7.80616
8.37149
8.95764
9.56246
10.183
10.815
11.4529
12.0895
12.7161
13.3229
13.8997
14.4354
14.919
15.339
15.6828
15.9372
16.0883
16.1226
16.0291
15.8012
15.4379
14.9444
-17.5326
-18.0607
-18.431
-18.6471
-18.7206
-18.6667
-18.5007
-18.2355
-17.8808
-17.4442
-16.9325
-16.3533
-15.7163
-15.0332
-14.3169
-13.5808
-12.8372
-12.0965
-11.3663
-10.6522
-9.95801
-9.28661
-8.64009
-8.0202
-7.42827
-6.86503
-6.33056
-5.82423
-5.34495
-4.89141
-4.46227
-4.05623
-3.67198
-3.30808
-2.96292
-2.63468
-2.32147
-2.02138
-1.73264
-1.45368
-1.18309
-0.919554
-0.661719
-0.408114
-0.157119
0.0930061
0.34405
0.597763
0.855781
1.1196
1.39057
1.67002
1.95928
2.25982
2.57321
2.90106
3.24494
3.6063
3.9865
4.3869
4.80902
5.25454
5.7253
6.22316
6.74971
7.30605
7.89261
8.50917
9.15497
9.82896
10.5298
11.2555
12.0035
12.7693
13.5467
14.3268
15.0985
15.8492
16.5659
17.2355
17.8448
18.3807
18.8281
19.1698
19.3861
19.4565
19.3633
19.095
18.6488
18.0316
-20.7405
-21.3736
-21.7964
-22.0183
-22.0622
-21.9557
-21.7231
-21.3816
-20.9413
-20.408
-19.7858
-19.0814
-18.3055
-17.473
-16.6019
-15.711
-14.8171
-13.9334
-13.0686
-12.2278
-11.4142
-10.6297
-9.87613
-9.15538
-8.46911
-7.8183
-7.20283
-6.62151
-6.0724
-5.55348
-5.06294
-4.59935
-4.16134
-3.74737
-3.35552
-2.9835
-2.62881
-2.28897
-1.96179
-1.64547
-1.33862
-1.03997
-0.748164
-0.46158
-0.178289
0.103883
0.387218
0.673912
0.965931
1.26495
1.57238
1.88951
2.21775
2.55876
2.91449
3.28704
3.67831
4.08994
4.5233
4.97973
5.46089
5.96892
6.50638
7.07605
7.68046
8.32133
8.99929
9.71386
10.464
11.2485
12.0665
12.917
13.7984
14.7072
15.6365
16.5757
17.5102
18.4235
19.2986
20.1202
20.8742
21.5468
22.1224
22.5795
22.8902
23.022
22.9453
22.6403
22.1014
21.3375
-24.2354
-24.9836
-25.445
-25.64
-25.6146
-25.4211
-25.0973
-24.6652
-24.1318
-23.4961
-22.7545
-21.91
-20.974
-19.9669
-18.9145
-17.8448
-16.7822
-15.7431
-14.7365
-13.765
-12.8291
-11.9289
-11.0658
-10.2418
-9.45983
-8.72164
-8.02692
-7.37334
-6.75733
-6.17557
-5.62568
-5.10641
-4.61684
-4.15551
-3.7202
-3.30793
-2.91529
-2.53881
-2.17569
-1.82399
-1.48261
-1.15075
-0.827242
-0.510399
-0.197884
0.113105
0.425635
0.742537
1.06621
1.39846
1.74055
2.09343
2.45829
2.83702
3.23219
3.64671
4.08308
4.54309
5.02771
5.53782
6.07503
6.64188
7.24209
7.87994
8.55972
9.28424
10.0543
10.8684
11.7243
12.6206
13.5571
14.5346
15.5543
16.6155
17.712
18.8309
19.9518
21.0512
22.1067
23.1
24.0177
24.8494
25.5832
26.1955
26.6466
26.8823
26.85
26.5166
25.8717
24.9292
-28.127
-28.9991
-29.4698
-29.5714
-29.402
-29.0674
-28.6213
-28.0901
-27.4656
-26.7337
-25.8693
-24.8691
-23.7443
-22.5259
-21.2523
-19.969
-18.7141
-17.5073
-16.355
-15.2522
-14.1939
-13.1765
-12.2007
-11.2695
-10.389
-9.56392
-8.79325
-8.07253
-7.39431
-6.75307
-6.14556
-5.57186
-5.03276
-4.52715
-4.05263
-3.60493
-3.17924
-2.77008
-2.37374
-1.98814
-1.61334
-1.24985
-0.896992
-0.553178
-0.215394
0.12007
0.457787
0.801512
1.15435
1.51805
1.89352
2.28055
2.67937
3.09221
3.5227
3.97567
4.45468
4.96172
5.49641
6.05798
6.64759
7.26803
7.92481
8.62473
9.37585
10.1829
11.0471
11.9639
12.9278
13.9362
14.9895
16.0924
17.2513
18.4734
19.7555
21.0829
22.4238
23.7408
25.003
26.1863
27.282
28.2891
29.2148
30.0383
30.7077
31.1225
31.1819
30.8349
30.064
28.9004
-32.5919
-33.5839
-34.0173
-33.8846
-33.419
-32.8665
-32.2612
-31.6433
-30.9494
-30.1582
-29.177
-28.0057
-26.6486
-25.1639
-23.6044
-22.0528
-20.5777
-19.1943
-17.9039
-16.6768
-15.5017
-14.3661
-13.2732
-12.2259
-11.2403
-10.3295
-9.48933
-8.71208
-7.97954
-7.28341
-6.61808
-5.98872
-5.4016
-4.85509
-4.34738
-3.87115
-3.42017
-2.98363
-2.55696
-2.13729
-1.72822
-1.33398
-0.953993
-0.587465
-0.229678
0.123752
0.48133
0.847491
1.22705
1.621
2.03025
2.45117
2.88085
3.32268
3.7816
4.268
4.78684
5.34161
5.92754
6.53898
7.17704
7.8432
8.54679
9.29722
10.1129
11.001
11.9656
12.9933
14.0685
15.1888
16.3517
17.5707
18.8583
20.2454
21.7344
23.3154
24.9299
26.5083
28.0113
29.3962
30.6705
31.8417
32.9885
34.0971
35.1284
35.8673
36.0913
35.7554
34.8135
33.3875
-37.9503
-38.9623
-39.3694
-38.6671
-37.5512
-36.7328
-35.9113
-35.2989
-34.5676
-33.8521
-32.7552
-31.4077
-29.7354
-27.9094
-25.9452
-24.0271
-22.3101
-20.7486
-19.3632
-18.0281
-16.7547
-15.496
-14.2818
-13.0955
-11.9856
-10.9953
-10.0965
-9.28894
-8.51393
-7.77091
-7.04018
-6.34606
-5.71311
-5.12825
-4.59779
-4.10191
-3.64113
-3.18371
-2.73075
-2.27171
-1.82217
-1.39795
-0.991855
-0.609328
-0.237776
0.121442
0.492575
0.874327
1.27927
1.70225
2.15064
2.60976
3.06549
3.52928
4.0018
4.51455
5.06833
5.67778
6.32322
6.98303
7.66747
8.36599
9.10291
9.87741
10.7472
11.7108
12.7949
13.956
15.1461
16.3819
17.6348
18.9517
20.3231
21.8718
23.5814
25.4998
27.488
29.3838
31.1877
32.763
34.2037
35.4244
36.8109
38.2598
39.9619
41.3444
41.7973
41.5387
40.2501
38.6218
-44.9377
-45.1994
-46.3057
-44.0324
-41.2428
-40.5926
-39.2502
-39.118
-38.1571
-38.0915
-36.6918
-35.2768
-33.0439
-30.8547
-28.2213
-25.7134
-23.8205
-22.0518
-20.7522
-19.2933
-17.9892
-16.5645
-15.2527
-13.8576
-12.5612
-11.5313
-10.5743
-9.82102
-9.00418
-8.24256
-7.41122
-6.61684
-5.95676
-5.32435
-4.79958
-4.28318
-3.85828
-3.37827
-2.91409
-2.39311
-1.88021
-1.43621
-0.996074
-0.615594
-0.228235
0.101918
0.488553
0.867871
1.30574
1.74724
2.25607
2.77384
3.23925
3.72415
4.16501
4.70308
5.27079
5.96347
6.69964
7.39321
8.13933
8.83524
9.60674
10.3223
11.2482
12.2494
13.5154
14.8791
16.1604
17.5524
18.8281
20.2563
21.5342
23.268
25.129
27.5848
30.1797
32.3912
34.6925
36.3214
38.0499
38.763
40.5362
42.0496
45.2462
48.1496
48.5167
48.7939
46.1643
45.1684
-56.1338
-50.2049
-58.0931
-50.1255
-41.8386
-45.4355
-40.8348
-44.121
-40.4502
-44.2477
-40.6484
-40.3233
-36.2903
-34.4412
-30.3184
-26.5157
-25.1542
-22.6816
-22.3736
-20.3386
-19.4004
-17.4736
-16.3468
-14.4799
-12.7556
-11.9648
-10.7611
-10.4468
-9.41703
-8.81659
-7.73082
-6.69577
-6.16194
-5.3667
-4.99051
-4.3338
-4.15585
-3.551
-3.18012
-2.50357
-1.83952
-1.46927
-0.914622
-0.63194
-0.136404
0.000987152
0.495078
0.777173
1.3272
1.6956
2.34912
3.01404
3.38577
3.98335
4.18921
4.85005
5.29452
6.18796
7.13906
7.7295
8.68542
9.1976
10.1932
10.4661
11.6432
12.4086
14.0975
15.9235
17.018
18.8933
19.8045
21.7798
22.0908
24.4829
25.8216
29.4708
33.4252
35.2702
39.1652
39.7345
43.3548
40.5685
44.6275
43.4051
50.941
58.5948
55.3518
60.22
49.7111
55.3678
-85.2839
-35.2949
-92.6939
-56.6593
-25.3027
-62.0669
-31.0468
-59.132
-31.9801
-61.0528
-39.8891
-50.7117
-36.3942
-41.3057
-31.9573
-23.8046
-28.0905
-20.1969
-26.486
-19.8078
-22.2397
-17.2343
-18.5105
-14.9002
-11.6081
-12.9952
-9.66972
-12.1053
-9.21408
-10.0919
-7.97934
-6.05445
-6.74505
-4.80681
-5.58672
-3.69607
-5.0695
-3.38792
-3.88741
-2.59679
-1.37615
-1.76826
-0.441661
-0.954979
0.471167
-0.613795
0.806865
0.30059
1.61038
1.23361
2.42634
3.67734
3.20795
4.80777
3.55918
5.30972
4.67286
6.33097
8.09981
7.54149
9.8728
8.86599
11.8228
9.30972
12.6332
11.2401
14.4851
18.0244
16.7546
21.626
19.2518
25.7035
19.6528
27.2169
23.1885
30.9198
39.7114
35.1991
48.4287
38.7531
57.8829
32.5084
56.3149
32.1348
56.4524
84.7175
50.4898
93.772
29.9608
83.0893
29401.3
29336.7
29269.7
29200.5
29129.1
29055.8
28980.8
28904.2
28826.3
28747.3
28667.2
28586.4
28505
28423.2
28341.1
3.73489
3.52696
3.29178
3.03607
2.76646
2.48903
2.20888
1.92994
1.65498
1.38561
1.1225
0.865538
0.613975
0.366605
0.121891
6.26072
5.90735
5.508
5.07452
4.61855
4.1506
3.67939
3.21154
2.75155
2.30197
1.86371
1.43638
1.01855
0.608042
0.202147
8.84124
8.33167
7.75641
7.13361
6.48092
5.81389
5.14516
4.48404
3.83666
3.20618
2.59343
1.99737
1.41563
0.844808
0.28082
11.5017
10.8193
10.0501
9.22048
8.35563
7.47708
6.60169
5.7414
4.90356
4.09156
3.30557
2.54346
1.80145
1.07459
0.357131
14.2709
13.391
12.4016
11.3403
10.2419
9.13512
8.04137
6.97476
5.94326
4.94964
3.99274
3.06864
2.17161
1.29471
0.430177
17.1819
16.069
14.822
13.4945
12.1341
10.7779
9.45192
8.17142
6.94367
5.76968
4.64589
3.56577
2.52098
1.50207
0.498927
20.2741
18.8768
17.3189
15.6779
14.0185
12.3876
10.8143
9.31323
7.88874
6.53816
5.25414
4.02654
2.8437
1.6932
0.56223
23.5976
21.8392
19.8936
17.8748
15.8703
13.9359
12.101
10.3756
8.75773
7.23837
5.80457
4.44142
3.13327
1.86432
0.618838
27.2205
24.9833
22.5363
20.0527
17.6476
15.3811
13.2748
11.3274
9.52574
7.85105
6.28275
4.80004
3.38273
2.01143
0.66746
31.2407
28.3304
25.2096
22.1471
19.2818
16.6621
14.2863
12.1307
10.1643
8.35526
6.67362
5.09191
3.58521
2.13066
0.706838
35.8197
31.8794
27.817
24.0372
20.6649
17.6944
15.0735
12.7415
10.6428
8.72996
6.96276
5.30736
3.73456
2.21859
0.735876
41.2717
35.5412
30.1343
25.5126
21.6406
18.3722
15.5675
13.1155
10.9329
8.95671
7.13829
5.43878
3.82609
2.27266
0.753769
48.1912
38.8689
31.6584
26.2313
22.0067
18.5816
15.7045
13.2167
11.0137
9.02344
7.19305
5.48194
3.85737
2.29164
0.760132
56.589
40.0733
31.3893
25.7402
21.5672
18.2381
15.4482
13.0296
10.8791
8.92805
7.12669
5.43714
3.82885
2.27587
0.755095
-0.761927
-2.2961
-3.86167
-5.48117
-7.17978
-8.987
-10.939
-13.0821
-15.4791
-18.2191
-21.4373
-25.3519
-30.3341
-36.9994
-45.9426
-0.741901
-2.23479
-3.75528
-5.32289
-6.95908
-8.68824
-10.5391
-12.5467
-14.7547
-17.2183
-20.0073
-23.1992
-26.8224
-30.568
-32.4723
-0.715471
-2.15403
-3.61563
-5.11625
-6.67284
-8.30377
-10.0291
-11.8706
-13.8505
-15.9889
-18.2948
-20.7438
-23.2209
-25.4103
-26.7989
-0.683665
-2.05701
-3.44842
-4.87006
-6.33413
-7.85276
-9.43731
-11.0968
-12.8345
-14.641
-16.4807
-18.2663
-19.816
-20.8052
-20.686
-0.647608
-1.9472
-3.25983
-4.59381
-5.9568
-7.35514
-8.79254
-10.2676
-11.7692
-13.2683
-14.7025
-15.9505
-16.7986
-16.9676
-16.7026
-0.608446
-1.82815
-3.05605
-4.29693
-5.55434
-6.82972
-8.12086
-9.41909
-10.7048
-11.9396
-13.0526
-13.9112
-14.2518
-13.4308
-9.21607
-0.567286
-1.70323
-2.84299
-3.98819
-5.13894
-6.29287
-7.44367
-8.57858
-9.67485
-10.6949
-11.5787
-12.2311
-12.5114
-12.2512
-11.6034
-0.52514
-1.57553
-2.62593
-3.67531
-4.72101
-5.75791
-6.77715
-7.76437
-8.69742
-9.54481
-10.2652
-10.8097
-11.1469
-11.3419
-11.8124
-0.482896
-1.44774
-2.40941
-3.36474
-4.30898
-5.23506
-6.13276
-6.98747
-7.77923
-8.48327
-9.07383
-9.53316
-9.88239
-10.2435
-10.911
-0.441306
-1.32212
-2.19719
-3.06171
-3.9094
-4.73191
-5.51827
-6.25423
-6.9219
-7.5011
-7.97405
-8.33409
-8.61133
-8.93482
-9.75895
-0.400981
-1.20048
-1.99226
-2.77029
-3.52722
-4.25389
-4.93897
-5.56859
-6.12616
-6.59341
-6.95343
-7.1938
-7.31003
-7.28128
-6.86522
-0.362398
-1.08423
-1.7969
-2.49352
-3.16602
-3.80481
-4.39843
-4.93328
-5.39344
-5.76093
-6.01682
-6.14105
-6.11129
-5.8993
-5.51234
-0.325909
-0.974419
-1.61278
-2.23354
-2.82828
-3.38722
-3.89897
-4.35023
-4.72553
-5.00671
-5.17261
-5.19656
-5.04087
-4.64112
-3.84109
-0.291753
-0.871741
-1.44099
-1.99177
-2.51553
-3.00257
-3.44178
-3.82038
-4.12348
-4.33331
-4.42794
-4.37807
-4.14153
-3.66283
-2.95159
-0.260074
-0.776608
-1.28215
-1.76893
-2.22847
-2.65135
-3.02701
-3.34341
-3.58676
-3.74063
-3.78456
-3.69037
-3.41174
-2.84762
-1.66966
-0.230935
-0.689191
-1.1365
-1.56519
-1.96707
-2.3332
-2.65371
-2.91765
-3.11275
-3.22501
-3.23798
-3.13179
-2.88141
-2.45994
-1.8896
-0.204332
-0.609459
-1.0039
-1.38026
-1.73075
-2.04702
-2.32006
-2.54016
-2.69686
-2.779
-2.77502
-2.67429
-2.47097
-2.17682
-1.85867
-0.180207
-0.537221
-0.883988
-1.21349
-1.51843
-1.79115
-2.02354
-2.20715
-2.3333
-2.39344
-2.38002
-2.28891
-2.12458
-1.91147
-1.70909
-0.158462
-0.472167
-0.776192
-1.06396
-1.32874
-1.56357
-1.76125
-1.91449
-2.01612
-2.05956
-2.03968
-1.95518
-1.81298
-1.63969
-1.51752
-0.138968
-0.413898
-0.679797
-0.930584
-1.16009
-1.36206
-1.53015
-1.65809
-1.73987
-1.77018
-1.74488
-1.66222
-1.52379
-1.33329
-1.07345
-0.121579
-0.361958
-0.594005
-0.812147
-1.01079
-1.18435
-1.32727
-1.43412
-1.49984
-1.51992
-1.49051
-1.40863
-1.27143
-1.07579
-0.834187
-0.106134
-0.315859
-0.517968
-0.707401
-0.879128
-1.02818
-1.14971
-1.23907
-1.29194
-1.30447
-1.2731
-1.194
-1.06024
-0.850781
-0.479925
-0.0924693
-0.275101
-0.450828
-0.615092
-0.763399
-0.891367
-0.994778
-1.06967
-1.11244
-1.11992
-1.08929
-1.01781
-0.902124
-0.738312
-0.534997
-0.080421
-0.239185
-0.391737
-0.533995
-0.661971
-0.771821
-0.859904
-0.922874
-0.95779
-0.962209
-0.934242
-0.872754
-0.777852
-0.653688
-0.519935
-0.0698298
-0.20763
-0.339876
-0.462937
-0.573293
-0.667588
-0.742701
-0.795832
-0.824629
-0.827314
-0.802841
-0.75127
-0.674281
-0.576099
-0.462127
-0.0605434
-0.179976
-0.294471
-0.400814
-0.495914
-0.576856
-0.640972
-0.685933
-0.709879
-0.711568
-0.690583
-0.647766
-0.58577
-0.509815
-0.427713
-0.0524191
-0.155792
-0.254797
-0.346603
-0.428503
-0.497971
-0.552733
-0.590848
-0.610836
-0.611828
-0.593772
-0.557877
-0.507255
-0.448111
-0.391011
-0.0453243
-0.134681
-0.22019
-0.299366
-0.369846
-0.429447
-0.476223
-0.508545
-0.525207
-0.525545
-0.509604
-0.478476
-0.434929
-0.385268
-0.346914
-0.0391376
-0.116279
-0.190043
-0.258255
-0.318858
-0.369964
-0.409903
-0.437293
-0.451111
-0.450774
-0.436204
-0.407931
-0.367083
-0.314818
-0.247163
-0.0337489
-0.100254
-0.163806
-0.222506
-0.274567
-0.318356
-0.352437
-0.375622
-0.387021
-0.386071
-0.372514
-0.346317
-0.30737
-0.255255
-0.19289
-0.0290589
-0.0863112
-0.140988
-0.191439
-0.236113
-0.273599
-0.302661
-0.322275
-0.331661
-0.330283
-0.317774
-0.293729
-0.25697
-0.202973
-0.112349
-0.0249785
-0.0741832
-0.12115
-0.164447
-0.202733
-0.23479
-0.259557
-0.276155
-0.283914
-0.282367
-0.271194
-0.25012
-0.218686
-0.176251
-0.124995
-0.0214284
-0.0636335
-0.103901
-0.140992
-0.173751
-0.201131
-0.222223
-0.236282
-0.242751
-0.24126
-0.23162
-0.213832
-0.188164
-0.155769
-0.121291
-0.0183378
-0.0544512
-0.0888928
-0.120597
-0.148569
-0.171914
-0.189859
-0.201778
-0.20722
-0.20592
-0.19782
-0.18313
-0.162423
-0.136835
-0.107744
-0.015644
-0.0464489
-0.0758182
-0.102838
-0.126658
-0.146514
-0.161755
-0.171858
-0.176464
-0.175397
-0.168695
-0.156702
-0.140169
-0.120425
-0.099398
-0.0132911
-0.0394605
-0.0644036
-0.0873408
-0.107548
-0.124379
-0.137284
-0.14583
-0.14973
-0.148867
-0.143333
-0.133514
-0.12023
-0.10499
-0.0902546
-0.0112296
-0.0333385
-0.054407
-0.0737741
-0.0908279
-0.105023
-0.115897
-0.123092
-0.126374
-0.125654
-0.12102
-0.112806
-0.101723
-0.0892768
-0.0795227
-0.00941556
-0.027952
-0.0456133
-0.0618442
-0.0761309
-0.0880166
-0.0971157
-0.103129
-0.105857
-0.10522
-0.101258
-0.0941558
-0.0842266
-0.0717573
-0.0557477
-0.00780973
-0.0231843
-0.0378315
-0.0512902
-0.0631341
-0.0729842
-0.0805205
-0.0854928
-0.0877305
-0.087147
-0.0837305
-0.0775229
-0.0685471
-0.0567466
-0.0427687
-0.00637701
-0.0189309
-0.0308907
-0.0418797
-0.0515497
-0.0595913
-0.0657425
-0.0697963
-0.0716066
-0.0710861
-0.0681876
-0.0628571
-0.0548726
-0.0432878
-0.0239595
-0.00508578
-0.015098
-0.0246372
-0.0334034
-0.0411194
-0.0475386
-0.0524515
-0.0556914
-0.0571378
-0.0567136
-0.0543713
-0.0500713
-0.043733
-0.0352361
-0.0250233
-0.00390727
-0.0116
-0.0189311
-0.0256713
-0.0316085
-0.0365541
-0.0403472
-0.0428595
-0.0439977
-0.0437027
-0.0419454
-0.0387303
-0.0341202
-0.0284005
-0.0227714
-0.002815
-0.00835824
-0.0136439
-0.0185085
-0.0228012
-0.0263872
-0.0291519
-0.0310034
-0.031876
-0.0317307
-0.030556
-0.0283812
-0.0252998
-0.0215218
-0.0172578
-0.00178423
-0.00529919
-0.00865531
-0.0117519
-0.0144958
-0.0168039
-0.0186052
-0.0198434
-0.0204788
-0.0204907
-0.0198793
-0.018679
-0.0169796
-0.0149958
-0.013328
-0.000791456
-0.00235304
-0.00385135
-0.00524628
-0.00650068
-0.00758126
-0.00845948
-0.00911276
-0.0095264
-0.00969506
-0.00962381
-0.00933494
-0.00886818
-0.00826101
-0.00732347
0.000186076
0.000547794
0.000878445
0.00115836
0.00136948
0.00149599
0.00152481
0.00144551
0.00124923
0.000927765
0.000473826
-0.000120875
-0.000860481
-0.00176146
-0.00312941
0.00117082
0.00347001
0.00564307
0.00761012
0.00929752
0.0106402
0.0115834
0.012084
0.0121105
0.0116417
0.010668
0.00919262
0.007258
0.00506103
0.00348162
0.00218539
0.00648081
0.0105523
0.0142581
0.0174674
0.0200647
0.0219528
0.0230558
0.0233195
0.0227106
0.0212146
0.0188291
0.0155623
0.011458
0.00679067
0.00325306
0.00964928
0.015719
0.0212556
0.0260683
0.0299887
0.0328756
0.0346193
0.0351436
0.0344053
0.0323886
0.029087
0.024457
0.0182534
0.00925158
0.00439821
0.0130479
0.0212616
0.0287633
0.0352983
0.0406416
0.044605
0.0470435
0.0478592
0.0470031
0.0444701
0.0402824
0.0344584
0.0270039
0.0183179
0.00564684
0.0167538
0.0273062
0.0369527
0.0453689
0.0522682
0.0574109
0.0606137
0.0617562
0.0607867
0.0577222
0.0526352
0.0456122
0.0366276
0.0250366
0.00702711
0.0208508
0.0339898
0.0460098
0.0565097
0.0651344
0.0715867
0.0756394
0.0771462
0.0760528
0.0724068
0.0663602
0.058155
0.0480858
0.0367272
0.00856989
0.0254307
0.0414625
0.056139
0.0689736
0.0795338
0.0874569
0.0924638
0.0943747
0.093126
0.0887933
0.081619
0.0720264
0.060472
0.0462104
0.0103094
0.030595
0.0498908
0.0675674
0.0830418
0.0957943
0.105386
0.111475
0.113837
0.112382
0.107196
0.0985997
0.087302
0.0747787
0.0646487
0.0122836
0.0364572
0.0594605
0.0805487
0.0990299
0.114285
0.125787
0.13312
0.135997
0.13428
0.128016
0.117507
0.103479
0.0874733
0.0724796
0.0145353
0.0431441
0.0703799
0.0953678
0.117293
0.135423
0.14913
0.157911
0.161401
0.159393
0.151845
0.138917
0.121086
0.0995221
0.0772072
0.0171122
0.0507983
0.0828834
0.112346
0.138231
0.159679
0.175948
0.186435
0.190689
0.18842
0.179477
0.163802
0.141352
0.112155
0.078127
0.0200681
0.05958
0.0972343
0.131843
0.162296
0.187587
0.206844
0.219355
0.224582
0.222161
0.211864
0.19347
0.166377
0.128212
0.0683808
0.0234636
0.0696697
0.11373
0.154269
0.189998
0.219746
0.242496
0.257413
0.263871
0.26146
0.249965
0.22927
0.199179
0.15939
0.112106
0.0273665
0.0812699
0.132703
0.18008
0.221911
0.256836
0.283668
0.301435
0.309415
0.307172
0.294562
0.271701
0.238819
0.195868
0.140926
0.0318531
0.0946081
0.15453
0.209796
0.258686
0.299624
0.331227
0.352355
0.362171
0.3602
0.346401
0.321218
0.285574
0.240789
0.189574
0.0370084
0.109939
0.179631
0.243997
0.301056
0.348983
0.386162
0.411247
0.423238
0.421578
0.406287
0.378143
0.338822
0.290319
0.229469
0.0429273
0.127546
0.208477
0.283336
0.34985
0.405905
0.44961
0.479361
0.493928
0.492575
0.475261
0.443
0.398616
0.348595
0.309359
0.0497146
0.147743
0.241591
0.328542
0.405996
0.471513
0.522877
0.558166
0.575834
0.574831
0.554799
0.516466
0.462524
0.399585
0.341482
0.0574856
0.170877
0.279547
0.380421
0.470531
0.547069
0.60745
0.649369
0.670886
0.670498
0.647256
0.600988
0.532901
0.447445
0.357374
0.0663659
0.197324
0.322978
0.43986
0.544599
0.63398
0.704999
0.754922
0.781352
0.782255
0.755939
0.700907
0.615591
0.498757
0.358193
0.0764906
0.227491
0.372566
0.507821
0.62945
0.733789
0.81737
0.87699
0.90977
0.913163
0.88483
0.822134
0.720446
0.566814
0.310005
0.0880042
0.261814
0.429042
0.585341
0.726436
0.84817
0.946569
1.01792
1.05885
1.06638
1.03789
0.970754
0.861692
0.706813
0.514233
0.101058
0.300751
0.49318
0.673523
0.837002
0.978926
1.09476
1.18021
1.23139
1.24493
1.21812
1.14886
1.03513
0.873363
0.650699
0.11581
0.344777
0.565787
0.773524
0.962681
1.12798
1.26426
1.36657
1.43037
1.45184
1.42823
1.35826
1.24239
1.08266
0.888143
0.132417
0.394375
0.647686
0.886541
1.10508
1.29739
1.45759
1.57995
1.65909
1.69046
1.67095
1.60003
1.48063
1.31668
1.08582
0.151038
0.450022
0.739704
1.01378
1.26584
1.48929
1.67746
1.82364
1.92135
1.96481
1.94988
1.87602
1.75043
1.59786
1.49315
0.171819
0.512175
0.842633
1.15644
1.44661
1.7059
1.92673
2.1013
2.22167
2.28018
2.27027
2.18856
2.03967
1.84663
1.66603
0.194894
0.581242
0.9572
1.31561
1.64899
1.94941
2.2084
2.41693
2.56536
2.64355
2.6411
2.54844
2.36035
2.08769
1.79197
0.22037
0.657562
1.08402
1.49228
1.87442
2.22189
2.52537
2.77462
2.95825
3.06343
3.0752
2.97531
2.7406
2.34573
1.81189
0.248318
0.741368
1.22354
1.68718
2.12405
2.5251
2.88026
3.1782
3.40604
3.54871
3.58751
3.49659
3.23299
2.70129
1.58806
0.278765
0.832754
1.37597
1.90075
2.39868
2.86035
3.2751
3.63077
3.9134
4.10665
4.19057
4.13862
3.91253
3.46176
2.79763
0.311674
0.931632
1.54124
2.13302
2.69857
3.22832
3.71118
4.13435
4.4832
4.74106
4.88869
4.90248
4.74923
4.37172
3.62833
0.346937
1.0377
1.71891
2.38352
3.02338
3.62895
4.18885
4.68978
5.11654
5.4525
5.68045
5.78329
5.74292
5.53736
5.17925
0.384354
1.15038
1.9081
2.65118
3.37203
4.06131
4.70755
5.29687
5.8132
6.2394
6.55977
6.76451
6.85268
6.81081
6.42416
0.423624
1.26879
2.10741
2.93423
3.74253
4.52353
5.26578
5.95469
6.57262
7.1001
7.51999
7.82761
8.05414
8.32573
9.07261
0.464323
1.39167
2.31484
3.23003
4.13185
5.01251
5.8609
6.66174
7.39486
8.03569
8.55859
8.94781
9.22561
9.5127
10.1014
0.505894
1.51738
2.52768
3.53495
4.53566
5.52363
6.48879
7.41556
8.28103
9.05314
9.6902
10.1459
10.3917
10.4921
10.8294
0.547635
1.64381
2.74244
3.84416
4.948
6.05023
7.14289
8.21149
9.23164
10.1641
10.9476
11.49
11.6593
11.3083
10.5994
0.588699
1.7684
2.95481
4.15159
5.36103
6.58295
7.8131
9.04041
10.2425
11.3777
12.3719
13.0927
13.2884
12.3735
8.36469
0.628102
1.88817
3.15969
4.44983
5.76485
7.10927
8.48446
9.88597
11.2988
12.6883
13.9852
15.059
15.6879
15.587
14.9637
0.664755
1.99977
3.35129
4.7303
6.14759
7.61339
9.13652
10.7225
12.3698
14.0619
15.7517
17.3328
18.5926
19.1616
18.4954
0.697511
2.09967
3.52341
4.9836
6.49585
8.0767
9.74371
11.5151
13.4082
15.4352
17.5916
19.8272
21.9742
23.5915
23.834
0.72522
2.18434
3.66977
5.20011
6.79558
8.47901
10.277
12.2215
14.3517
16.7165
19.3739
22.3801
25.7198
28.9719
29.7991
0.746812
2.25044
3.78447
5.37064
7.03321
8.80043
10.7069
12.797
15.1303
17.7917
20.9107
24.6977
29.5212
36.0308
45.0807
44.0367
34.9155
28.6305
24.0463
20.4471
17.4632
14.896
12.6286
10.5852
8.71232
6.96996
5.32638
3.75529
2.23385
0.741433
27.6816
27.407
24.6828
21.713
18.9417
16.431
14.1591
12.089
10.1846
8.41417
6.75024
5.16906
3.64965
2.17303
0.721574
20.5047
21.5939
20.9008
19.2379
17.2521
15.2304
13.2799
11.4324
9.68945
8.04075
6.47205
4.9681
3.51378
2.09443
0.695847
11.5919
17.0142
17.7886
16.9839
15.5848
13.9779
12.3272
10.7016
9.12743
7.61063
6.148
4.73201
3.35317
2.00113
0.665247
15.0115
15.6596
15.7704
15.1403
14.0597
12.754
11.3553
9.93383
8.52435
7.14189
5.79078
4.46955
3.17354
1.89638
0.630825
15.3621
14.6765
14.265
13.608
12.6893
11.5933
10.398
9.1566
7.90153
6.65055
5.41215
4.18906
2.98046
1.78337
0.59362
14.0579
13.5028
12.9294
12.2564
11.441
10.5007
9.47168
8.38802
7.27509
6.14981
5.02236
3.89812
2.77908
1.66509
0.554614
13.2257
12.3423
11.6631
11.0034
10.279
9.46898
8.58276
7.63915
6.65665
5.65005
4.62994
3.60323
2.57398
1.54424
0.514696
11.9386
11.0415
10.384
9.79561
9.17637
8.49001
7.73338
6.9169
6.05455
5.15933
4.2418
3.30986
2.36905
1.42314
0.47464
10.5929
9.57642
9.05828
8.60994
8.12067
7.5599
6.92545
6.22633
5.47503
4.68386
3.86348
3.02249
2.16755
1.30376
0.435103
7.40287
7.76768
7.68559
7.45363
7.11519
6.68124
6.16252
5.57198
4.92313
4.22858
3.49938
2.74472
1.97212
1.18772
0.396626
5.9229
6.27162
6.41861
6.37238
6.17675
5.86189
5.44973
4.95825
4.40298
3.79737
3.15293
2.47938
1.78487
1.07629
0.359641
4.10833