/*--------------------------------*- C++ -*----------------------------------*\
| =========                 |                                                 |
| \\      /  F ield         | OpenFOAM: The Open Source CFD Toolbox           |
|  \\    /   O peration     | Version:  5.x                                   |
|   \\  /    A nd           | Web:      www.OpenFOAM.org                      |
|    \\/     M anipulation  |                                                 |
\*---------------------------------------------------------------------------*/
FoamFile
{
    version     2.0;
    format      ascii;
    class       volScalarField;
    location    "0.1";
    object      T;
}
// * * * * * * * * * * * * * * * * * * * * * * * * * * * * * * * * * * * * * //

dimensions      [0 0 0 1 0 0 0];

internalField   nonuniform List<scalar> 
6300
(
322.592
321.776
320.964
320.155
319.353
318.558
317.774
317
316.241
315.496
314.769
314.061
313.373
312.708
312.067
322.591
321.774
320.96
320.149
319.345
318.549
317.763
316.988
316.226
315.48
314.751
314.041
313.352
312.685
312.043
322.589
321.769
320.951
320.138
319.33
318.531
317.741
316.962
316.197
315.447
314.714
314.001
313.308
312.639
311.994
322.587
321.762
320.939
320.121
319.308
318.503
317.708
316.923
316.153
315.397
314.659
313.941
313.243
312.569
311.92
322.584
321.752
320.923
320.098
319.278
318.466
317.664
316.872
316.094
315.331
314.586
313.86
313.156
312.476
311.821
322.58
321.74
320.903
320.069
319.242
318.421
317.609
316.809
316.021
315.249
314.494
313.758
313.045
312.357
311.696
322.575
321.726
320.879
320.036
319.198
318.367
317.545
316.733
315.934
315.149
314.383
313.636
312.912
312.213
311.543
322.57
321.71
320.852
319.998
319.148
318.305
317.47
316.645
315.832
315.034
314.252
313.491
312.753
312.042
311.36
322.564
321.692
320.822
319.955
319.092
318.235
317.386
316.546
315.717
314.902
314.103
313.324
312.569
311.842
311.146
322.557
321.672
320.788
319.908
319.03
318.158
317.293
316.436
315.589
314.754
313.935
313.135
312.359
311.611
310.898
322.55
321.651
320.753
319.857
318.964
318.076
317.193
316.316
315.449
314.592
313.749
312.923
312.12
311.347
310.612
322.543
321.629
320.715
319.804
318.895
317.989
317.086
316.189
315.299
314.417
313.546
312.69
311.854
311.048
310.282
322.535
321.606
320.677
319.749
318.822
317.898
316.976
316.057
315.142
314.232
313.329
312.437
311.56
310.709
309.9
322.527
321.582
320.637
319.693
318.749
317.805
316.863
315.921
314.98
314.041
313.104
312.17
311.242
310.329
309.453
322.52
321.559
320.598
319.636
318.675
317.712
316.749
315.785
314.818
313.849
312.876
311.897
310.91
309.915
308.921
311.502
311.007
310.531
310.074
309.636
309.218
308.819
308.44
308.079
307.738
307.416
307.111
306.824
306.555
306.301
306.063
305.84
305.631
305.436
305.253
305.082
304.923
304.774
304.635
304.506
304.384
304.271
304.165
304.066
303.973
303.886
303.805
303.727
303.655
303.586
303.521
303.458
303.399
303.342
303.287
303.234
303.182
303.131
303.081
303.032
302.983
302.933
302.884
302.833
302.782
302.729
302.674
302.618
302.559
302.498
302.433
302.365
302.293
302.218
302.137
302.051
301.96
301.862
301.758
301.647
301.527
301.4
301.263
301.117
300.96
300.792
300.612
300.419
300.213
299.993
299.758
299.507
299.24
298.956
298.654
298.333
297.994
297.635
297.257
296.858
296.44
296.001
295.543
295.065
294.568
311.477
310.981
310.504
310.047
309.609
309.19
308.792
308.413
308.053
307.713
307.391
307.087
306.801
306.532
306.279
306.042
305.82
305.612
305.418
305.237
305.067
304.909
304.761
304.623
304.494
304.374
304.261
304.156
304.058
303.966
303.879
303.798
303.722
303.649
303.581
303.516
303.455
303.396
303.339
303.285
303.232
303.18
303.13
303.081
303.032
302.983
302.934
302.884
302.834
302.783
302.731
302.677
302.621
302.563
302.502
302.438
302.37
302.299
302.224
302.144
302.059
301.968
301.871
301.768
301.657
301.539
301.412
301.276
301.131
300.975
300.808
300.629
300.438
300.233
300.014
299.78
299.53
299.264
298.98
298.679
298.359
298.021
297.662
297.284
296.886
296.468
296.029
295.57
295.092
294.594
311.426
310.929
310.451
309.993
309.554
309.136
308.738
308.359
308
307.661
307.34
307.038
306.754
306.487
306.236
306.001
305.781
305.575
305.383
305.203
305.036
304.879
304.733
304.597
304.47
304.352
304.241
304.137
304.041
303.95
303.865
303.785
303.71
303.639
303.572
303.508
303.447
303.389
303.334
303.28
303.228
303.177
303.128
303.079
303.031
302.983
302.935
302.886
302.837
302.787
302.736
302.682
302.627
302.57
302.51
302.447
302.381
302.311
302.237
302.158
302.074
301.985
301.89
301.788
301.679
301.562
301.437
301.303
301.16
301.006
300.841
300.664
300.475
300.272
300.055
299.823
299.576
299.311
299.03
298.73
298.412
298.075
297.717
297.34
296.942
296.524
296.085
295.625
295.145
294.646
311.35
310.85
310.371
309.911
309.472
309.054
308.656
308.278
307.921
307.583
307.265
306.965
306.683
306.418
306.171
305.939
305.722
305.519
305.33
305.154
304.989
304.836
304.693
304.559
304.435
304.319
304.211
304.11
304.015
303.926
303.843
303.765
303.692
303.623
303.557
303.495
303.436
303.379
303.325
303.273
303.222
303.173
303.125
303.077
303.03
302.984
302.937
302.889
302.841
302.792
302.742
302.69
302.637
302.581
302.522
302.461
302.397
302.328
302.256
302.179
302.097
302.01
301.917
301.818
301.711
301.597
301.475
301.344
301.203
301.052
300.89
300.717
300.531
300.331
300.118
299.889
299.644
299.383
299.105
298.808
298.492
298.156
297.801
297.424
297.027
296.608
296.169
295.708
295.226
294.724
311.247
310.744
310.262
309.801
309.362
308.943
308.546
308.17
307.814
307.479
307.163
306.866
306.588
306.327
306.083
305.856
305.643
305.445
305.26
305.088
304.927
304.778
304.639
304.509
304.388
304.276
304.171
304.073
303.981
303.895
303.815
303.74
303.669
303.602
303.538
303.478
303.421
303.367
303.314
303.264
303.215
303.167
303.121
303.075
303.029
302.984
302.939
302.893
302.847
302.8
302.751
302.701
302.649
302.595
302.539
302.48
302.417
302.351
302.281
302.207
302.128
302.043
301.953
301.857
301.754
301.643
301.524
301.397
301.26
301.113
300.956
300.787
300.605
300.41
300.201
299.977
299.736
299.479
299.205
298.911
298.599
298.266
297.912
297.538
297.141
296.723
296.282
295.82
295.336
294.83
311.116
310.609
310.125
309.662
309.221
308.803
308.407
308.032
307.679
307.347
307.035
306.742
306.468
306.213
305.974
305.752
305.544
305.352
305.172
305.005
304.85
304.706
304.571
304.447
304.33
304.222
304.121
304.027
303.939
303.857
303.78
303.708
303.64
303.576
303.515
303.458
303.403
303.351
303.3
303.252
303.205
303.16
303.115
303.072
303.028
302.985
302.942
302.898
302.854
302.808
302.762
302.714
302.665
302.613
302.559
302.502
302.443
302.38
302.313
302.241
302.166
302.085
301.998
301.906
301.806
301.7
301.586
301.463
301.331
301.19
301.037
300.874
300.698
300.508
300.305
300.086
299.852
299.6
299.33
299.042
298.733
298.404
298.054
297.681
297.286
296.868
296.426
295.962
295.474
294.965
310.956
310.445
309.957
309.492
309.05
308.632
308.238
307.865
307.515
307.187
306.879
306.592
306.324
306.074
305.842
305.626
305.426
305.24
305.067
304.907
304.758
304.62
304.491
304.372
304.261
304.158
304.062
303.973
303.89
303.812
303.739
303.67
303.606
303.545
303.487
303.433
303.381
303.332
303.284
303.239
303.194
303.151
303.109
303.068
303.027
302.986
302.945
302.903
302.862
302.819
302.775
302.73
302.683
302.634
302.583
302.529
302.473
302.413
302.35
302.282
302.21
302.134
302.051
301.963
301.869
301.768
301.659
301.542
301.416
301.281
301.135
300.978
300.809
300.626
300.43
300.218
299.991
299.746
299.483
299.2
298.897
298.573
298.226
297.856
297.463
297.045
296.603
296.136
295.644
295.129
310.765
310.248
309.756
309.289
308.847
308.43
308.037
307.668
307.322
306.998
306.696
306.415
306.154
305.912
305.688
305.48
305.288
305.11
304.945
304.792
304.651
304.52
304.399
304.286
304.182
304.085
303.995
303.911
303.832
303.759
303.691
303.627
303.566
303.509
303.456
303.405
303.356
303.31
303.266
303.223
303.182
303.142
303.102
303.063
303.025
302.987
302.948
302.91
302.871
302.831
302.79
302.748
302.704
302.658
302.611
302.56
302.508
302.452
302.392
302.329
302.262
302.19
302.113
302.03
301.941
301.846
301.744
301.633
301.515
301.386
301.248
301.099
300.938
300.764
300.576
300.373
300.154
299.917
299.662
299.387
299.09
298.772
298.43
298.065
297.674
297.257
296.814
296.344
295.847
295.325
310.541
310.017
309.521
309.051
308.609
308.193
307.803
307.438
307.097
306.779
306.484
306.21
305.958
305.725
305.51
305.312
305.13
304.961
304.806
304.662
304.53
304.407
304.294
304.189
304.092
304.002
303.918
303.841
303.768
303.7
303.637
303.578
303.522
303.47
303.42
303.373
303.329
303.286
303.245
303.206
303.168
303.131
303.094
303.058
303.023
302.988
302.953
302.917
302.881
302.844
302.807
302.768
302.727
302.685
302.641
302.595
302.546
302.495
302.44
302.382
302.32
302.253
302.182
302.105
302.023
301.934
301.839
301.737
301.626
301.506
301.376
301.236
301.085
300.92
300.743
300.55
300.341
300.114
299.869
299.602
299.314
299.004
298.668
298.308
297.921
297.506
297.062
296.589
296.086
295.556
310.28
309.749
309.247
308.776
308.335
307.921
307.535
307.174
306.839
306.528
306.241
305.977
305.735
305.513
305.309
305.123
304.952
304.795
304.65
304.517
304.394
304.281
304.177
304.081
303.993
303.91
303.834
303.763
303.697
303.636
303.578
303.525
303.474
303.426
303.381
303.339
303.298
303.259
303.222
303.187
303.152
303.118
303.086
303.053
303.021
302.989
302.957
302.925
302.892
302.859
302.825
302.79
302.753
302.715
302.675
302.633
302.589
302.543
302.493
302.44
302.383
302.323
302.258
302.188
302.113
302.032
301.945
301.851
301.749
301.639
301.519
301.389
301.249
301.096
300.93
300.749
300.553
300.338
300.104
299.849
299.571
299.269
298.942
298.589
298.207
297.795
297.351
296.874
296.365
295.824
309.978
309.437
308.931
308.46
308.021
307.612
307.231
306.876
306.547
306.244
305.966
305.713
305.483
305.274
305.085
304.913
304.755
304.611
304.479
304.357
304.246
304.144
304.05
303.964
303.884
303.811
303.743
303.679
303.62
303.565
303.514
303.467
303.422
303.379
303.339
303.301
303.265
303.231
303.198
303.166
303.135
303.106
303.076
303.047
303.019
302.99
302.962
302.933
302.904
302.875
302.844
302.813
302.781
302.747
302.712
302.675
302.636
302.594
302.55
302.503
302.452
302.398
302.34
302.278
302.21
302.138
302.06
301.976
301.884
301.785
301.676
301.558
301.43
301.29
301.138
300.971
300.789
300.589
300.369
300.126
299.86
299.569
299.253
298.909
298.535
298.128
297.685
297.205
296.688
296.134
309.629
309.077
308.567
308.099
307.666
307.264
306.89
306.541
306.22
305.925
305.657
305.417
305.202
305.009
304.837
304.682
304.54
304.411
304.292
304.183
304.084
303.994
303.912
303.837
303.768
303.704
303.644
303.589
303.538
303.49
303.446
303.405
303.366
303.329
303.294
303.261
303.23
303.2
303.171
303.144
303.118
303.092
303.067
303.041
303.016
302.991
302.967
302.942
302.917
302.891
302.865
302.839
302.811
302.782
302.751
302.719
302.685
302.649
302.611
302.571
302.527
302.479
302.428
302.374
302.315
302.252
302.184
302.111
302.03
301.943
301.846
301.741
301.626
301.501
301.365
301.216
301.051
300.868
300.664
300.436
300.184
299.906
299.602
299.27
298.909
298.512
298.073
297.589
297.061
296.492
309.219
308.658
308.144
307.687
307.27
306.877
306.512
306.17
305.856
305.567
305.311
305.085
304.888
304.716
304.566
304.432
304.309
304.196
304.091
303.996
303.911
303.834
303.764
303.702
303.645
303.591
303.541
303.493
303.45
303.41
303.374
303.34
303.307
303.277
303.247
303.219
303.192
303.167
303.143
303.121
303.099
303.078
303.056
303.035
303.014
302.993
302.972
302.95
302.93
302.909
302.887
302.865
302.842
302.818
302.792
302.765
302.737
302.708
302.677
302.643
302.606
302.566
302.522
302.475
302.425
302.372
302.316
302.255
302.187
302.112
302.029
301.937
301.836
301.727
301.609
301.481
301.339
301.177
300.992
300.781
300.544
300.278
299.989
299.674
299.334
298.955
298.521
298.036
297.493
296.906
308.73
308.173
307.641
307.218
306.842
306.452
306.105
305.759
305.457
305.163
304.924
304.711
304.541
304.392
304.273
304.168
304.064
303.97
303.877
303.797
303.724
303.663
303.607
303.56
303.517
303.473
303.433
303.393
303.358
303.325
303.298
303.272
303.247
303.223
303.198
303.176
303.153
303.132
303.113
303.096
303.08
303.063
303.047
303.029
303.012
302.994
302.976
302.959
302.943
302.926
302.91
302.894
302.875
302.856
302.834
302.813
302.79
302.769
302.745
302.719
302.69
302.656
302.621
302.58
302.54
302.497
302.454
302.408
302.354
302.294
302.223
302.146
302.057
301.966
301.867
301.767
301.655
301.516
301.358
301.163
300.945
300.681
300.413
300.111
299.814
299.475
299.043
298.565
297.984
297.395
308.097
307.654
306.982
306.684
306.433
305.969
305.696
305.288
305.047
304.682
304.498
304.278
304.163
304.027
303.96
303.902
303.806
303.742
303.644
303.59
303.523
303.484
303.437
303.412
303.389
303.352
303.325
303.284
303.262
303.234
303.219
303.206
303.184
303.169
303.148
303.133
303.109
303.096
303.079
303.07
303.062
303.048
303.038
303.023
303.011
302.993
302.981
302.966
302.956
302.942
302.934
302.926
302.91
302.897
302.876
302.862
302.843
302.831
302.819
302.797
302.78
302.75
302.726
302.684
302.658
302.62
302.598
302.573
302.527
302.49
302.425
302.373
302.278
302.217
302.126
302.071
302.008
301.882
301.776
301.576
301.411
301.089
300.882
300.542
300.353
300.127
299.628
299.241
298.487
298.014
294
293.356
292.687
291.995
291.282
290.55
289.801
289.036
288.258
287.468
286.669
285.862
285.048
284.231
283.411
294.025
293.379
292.708
292.015
291.3
290.566
289.815
289.049
288.269
287.477
286.676
285.867
285.052
284.233
283.411
294.075
293.426
292.752
292.055
291.337
290.6
289.845
289.074
288.291
287.496
286.691
285.879
285.061
284.238
283.413
294.15
293.497
292.819
292.116
291.393
290.649
289.889
289.113
288.324
287.523
286.714
285.896
285.073
284.245
283.415
294.252
293.593
292.908
292.198
291.467
290.716
289.948
289.164
288.368
287.56
286.743
285.919
285.089
284.255
283.419
294.38
293.714
293.02
292.301
291.56
290.799
290.021
289.228
288.422
287.605
286.78
285.947
285.109
284.267
283.423
294.537
293.861
293.156
292.425
291.672
290.899
290.108
289.304
288.486
287.659
286.823
285.98
285.132
284.281
283.427
294.724
294.035
293.316
292.571
291.802
291.015
290.21
289.391
288.561
287.721
286.873
286.018
285.159
284.297
283.432
294.943
294.238
293.502
292.738
291.952
291.146
290.325
289.49
288.644
287.79
286.928
286.061
285.189
284.315
283.438
295.196
294.472
293.714
292.928
292.12
291.293
290.452
289.599
288.736
287.865
286.989
286.107
285.222
284.334
283.445
295.487
294.738
293.953
293.14
292.305
291.454
290.59
289.716
288.835
287.947
287.054
286.157
285.257
284.355
283.452
295.821
295.038
294.218
293.371
292.506
291.627
290.738
289.841
288.939
288.032
287.122
286.209
285.294
284.377
283.459
296.204
295.375
294.509
293.62
292.718
291.808
290.892
289.971
289.048
288.121
287.193
286.263
285.331
284.399
283.466
296.646
295.749
294.821
293.881
292.938
291.994
291.049
290.104
289.158
288.212
287.265
286.318
285.37
284.422
283.474
297.167
296.153
295.142
294.145
293.158
292.18
291.206
290.236
289.268
288.302
287.337
286.372
285.409
284.445
283.482
322.513
321.537
320.562
319.585
318.608
317.629
316.648
315.663
314.674
313.678
312.674
311.656
310.616
309.535
308.35
322.506
321.518
320.53
319.54
318.549
317.555
316.558
315.556
314.547
313.53
312.5
311.453
310.378
309.264
308.104
322.5
321.5
320.499
319.497
318.492
317.484
316.472
315.454
314.428
313.391
312.34
311.269
310.169
309.026
307.808
322.494
321.483
320.47
319.455
318.438
317.417
316.391
315.358
314.317
313.264
312.195
311.107
309.991
308.84
307.657
322.489
321.466
320.442
319.416
318.386
317.353
316.315
315.269
314.214
313.147
312.066
310.965
309.839
308.679
307.464
322.484
321.45
320.415
319.379
318.338
317.294
316.244
315.187
314.12
313.042
311.95
310.841
309.711
308.558
307.379
322.479
321.435
320.391
319.344
318.294
317.239
316.179
315.112
314.036
312.948
311.848
310.733
309.601
308.455
307.31
322.474
321.422
320.368
319.312
318.253
317.189
316.12
315.044
313.959
312.864
311.757
310.637
309.503
308.353
307.185
322.47
321.409
320.347
319.283
318.215
317.143
316.066
314.982
313.891
312.789
311.677
310.553
309.415
308.266
307.113
322.466
321.398
320.328
319.256
318.181
317.102
316.018
314.927
313.829
312.723
311.606
310.478
309.338
308.183
307.003
322.462
321.387
320.31
319.232
318.15
317.065
315.974
314.878
313.775
312.664
311.544
310.414
309.272
308.117
306.95
322.459
321.378
320.295
319.21
318.122
317.031
315.936
314.835
313.727
312.613
311.49
310.358
309.216
308.061
306.889
322.456
321.369
320.28
319.19
318.097
317.001
315.901
314.796
313.685
312.568
311.444
310.311
309.17
308.019
306.859
322.454
321.361
320.268
319.173
318.075
316.975
315.871
314.762
313.649
312.529
311.404
310.272
309.132
307.984
306.825
322.452
321.354
320.256
319.157
318.055
316.951
315.844
314.732
313.617
312.496
311.37
310.238
309.101
307.958
306.809
322.45
321.348
320.246
319.143
318.038
316.93
315.82
314.706
313.589
312.467
311.341
310.21
309.075
307.936
306.797
322.448
321.343
320.238
319.131
318.023
316.912
315.799
314.684
313.565
312.442
311.316
310.186
309.053
307.917
306.778
322.446
321.338
320.23
319.12
318.009
316.896
315.781
314.664
313.544
312.421
311.295
310.166
309.034
307.9
306.766
322.445
321.334
320.223
319.111
317.997
316.882
315.766
314.647
313.526
312.402
311.276
310.148
309.018
307.885
306.749
322.444
321.33
320.217
319.102
317.987
316.87
315.752
314.632
313.51
312.387
311.261
310.133
309.004
307.873
306.741
322.442
321.327
320.211
319.095
317.978
316.86
315.74
314.619
313.497
312.373
311.247
310.12
308.992
307.863
306.732
322.441
321.324
320.207
319.089
317.97
316.851
315.73
314.608
313.485
312.361
311.236
310.11
308.983
307.855
306.727
322.441
321.322
320.203
319.083
317.963
316.843
315.721
314.599
313.475
312.351
311.226
310.101
308.975
307.849
306.724
322.44
321.32
320.199
319.079
317.957
316.836
315.713
314.59
313.467
312.343
311.218
310.093
308.968
307.843
306.718
322.439
321.318
320.196
319.074
317.952
316.83
315.707
314.583
313.459
312.335
311.211
310.086
308.962
307.838
306.715
322.439
321.316
320.194
319.071
317.948
316.825
315.701
314.577
313.453
312.329
311.204
310.08
308.956
307.833
306.71
322.438
321.315
320.191
319.068
317.944
316.82
315.696
314.572
313.448
312.323
311.199
310.075
308.952
307.829
306.708
322.438
321.314
320.189
319.065
317.941
316.816
315.692
314.567
313.443
312.319
311.194
310.071
308.948
307.826
306.704
322.438
321.313
320.188
319.063
317.938
316.813
315.688
314.563
313.439
312.314
311.191
310.067
308.945
307.823
306.702
322.437
321.312
320.186
319.061
317.935
316.81
315.685
314.56
313.435
312.311
311.187
310.064
308.942
307.82
306.7
322.437
321.311
320.185
319.059
317.933
316.808
315.682
314.557
313.432
312.308
311.184
310.061
308.939
307.818
306.699
322.437
321.31
320.184
319.058
317.931
316.806
315.68
314.555
313.43
312.306
311.182
310.059
308.937
307.817
306.698
322.437
321.31
320.183
319.056
317.93
316.804
315.678
314.552
313.428
312.303
311.18
310.057
308.936
307.816
306.697
322.436
321.309
320.182
319.055
317.929
316.802
315.676
314.551
313.426
312.301
311.178
310.056
308.934
307.814
306.696
322.436
321.309
320.181
319.054
317.927
316.801
315.675
314.549
313.424
312.3
311.177
310.054
308.933
307.813
306.695
322.436
321.308
320.181
319.054
317.926
316.8
315.673
314.548
313.423
312.299
311.175
310.053
308.932
307.812
306.694
322.436
321.308
320.18
319.053
317.926
316.799
315.672
314.547
313.422
312.297
311.174
310.052
308.931
307.811
306.693
322.436
321.308
320.18
319.052
317.925
316.798
315.672
314.546
313.421
312.296
311.173
310.051
308.93
307.811
306.693
322.436
321.308
320.18
319.052
317.924
316.797
315.671
314.545
313.42
312.296
311.172
310.05
308.93
307.81
306.692
322.436
321.308
320.179
319.051
317.924
316.797
315.67
314.544
313.419
312.295
311.172
310.05
308.929
307.81
306.692
322.436
321.307
320.179
319.051
317.923
316.796
315.67
314.544
313.419
312.294
311.171
310.049
308.929
307.81
306.692
322.436
321.307
320.179
319.051
317.923
316.796
315.669
314.543
313.418
312.294
311.171
310.049
308.928
307.809
306.692
322.436
321.307
320.179
319.051
317.923
316.796
315.669
314.543
313.418
312.294
311.171
310.049
308.928
307.809
306.692
322.436
321.307
320.179
319.051
317.923
316.796
315.669
314.543
313.418
312.294
311.17
310.049
308.928
307.809
306.691
322.436
321.307
320.179
319.051
317.923
316.795
315.669
314.543
313.418
312.293
311.17
310.048
308.928
307.809
306.691
322.436
321.307
320.179
319.05
317.923
316.795
315.669
314.543
313.418
312.293
311.17
310.048
308.928
307.809
306.691
322.436
321.307
320.179
319.051
317.923
316.795
315.669
314.543
313.418
312.293
311.17
310.048
308.928
307.809
306.691
322.436
321.307
320.179
319.051
317.923
316.796
315.669
314.543
313.418
312.294
311.17
310.049
308.928
307.809
306.691
322.436
321.307
320.179
319.051
317.923
316.796
315.669
314.543
313.418
312.294
311.171
310.049
308.928
307.809
306.691
322.436
321.307
320.179
319.051
317.923
316.796
315.669
314.543
313.418
312.294
311.171
310.049
308.928
307.809
306.692
322.436
321.307
320.179
319.051
317.924
316.796
315.67
314.544
313.419
312.295
311.171
310.049
308.929
307.809
306.692
322.436
321.308
320.179
319.052
317.924
316.797
315.67
314.545
313.419
312.295
311.172
310.05
308.929
307.81
306.692
322.436
321.308
320.18
319.052
317.925
316.798
315.671
314.545
313.42
312.296
311.173
310.051
308.93
307.81
306.692
322.436
321.308
320.18
319.053
317.925
316.798
315.672
314.546
313.421
312.297
311.173
310.051
308.93
307.811
306.693
322.436
321.308
320.181
319.053
317.926
316.799
315.673
314.547
313.422
312.298
311.174
310.052
308.931
307.811
306.693
322.436
321.309
320.181
319.054
317.927
316.8
315.674
314.548
313.423
312.299
311.176
310.053
308.932
307.812
306.694
322.436
321.309
320.182
319.055
317.928
316.801
315.675
314.55
313.425
312.3
311.177
310.054
308.933
307.813
306.695
322.436
321.309
320.183
319.056
317.929
316.803
315.677
314.551
313.426
312.302
311.179
310.056
308.934
307.814
306.695
322.437
321.31
320.183
319.057
317.931
316.805
315.679
314.553
313.428
312.304
311.18
310.058
308.936
307.815
306.696
322.437
321.311
320.184
319.058
317.932
316.807
315.681
314.556
313.431
312.306
311.183
310.06
308.938
307.817
306.697
322.437
321.311
320.186
319.06
317.934
316.809
315.683
314.558
313.434
312.309
311.185
310.062
308.94
307.819
306.698
322.437
321.312
320.187
319.062
317.937
316.812
315.686
314.562
313.437
312.312
311.188
310.065
308.942
307.821
306.7
322.438
321.313
320.189
319.064
317.939
316.815
315.69
314.565
313.441
312.316
311.192
310.069
308.946
307.823
306.702
322.438
321.314
320.19
319.067
317.942
316.818
315.694
314.57
313.445
312.321
311.196
310.073
308.949
307.827
306.705
322.439
321.316
320.193
319.069
317.946
316.822
315.699
314.575
313.45
312.326
311.201
310.077
308.953
307.83
306.708
322.439
321.317
320.195
319.073
317.95
316.827
315.704
314.58
313.456
312.332
311.207
310.083
308.958
307.834
306.711
322.44
321.319
320.198
319.077
317.955
316.833
315.71
314.587
313.463
312.339
311.214
310.089
308.964
307.838
306.714
322.44
321.321
320.201
319.081
317.961
316.84
315.718
314.595
313.471
312.347
311.222
310.096
308.97
307.844
306.717
322.441
321.323
320.205
319.087
317.967
316.847
315.726
314.604
313.481
312.357
311.231
310.105
308.978
307.85
306.722
322.442
321.326
320.21
319.093
317.975
316.856
315.736
314.615
313.492
312.368
311.242
310.115
308.987
307.858
306.727
322.443
321.329
320.215
319.099
317.983
316.866
315.747
314.627
313.505
312.381
311.255
310.128
308.999
307.868
306.737
322.444
321.333
320.22
319.107
317.993
316.878
315.76
314.641
313.52
312.396
311.27
310.142
309.012
307.88
306.746
322.446
321.337
320.227
319.116
318.004
316.891
315.775
314.657
313.537
312.414
311.288
310.159
309.028
307.895
306.762
322.447
321.341
320.234
319.127
318.017
316.906
315.792
314.676
313.557
312.434
311.308
310.179
309.046
307.911
306.773
322.449
321.346
320.243
319.138
318.032
316.923
315.812
314.698
313.58
312.458
311.332
310.201
309.067
307.93
306.792
322.451
321.352
320.252
319.151
318.049
316.943
315.834
314.722
313.606
312.485
311.359
310.228
309.092
307.95
306.803
322.453
321.359
320.263
319.166
318.067
316.965
315.86
314.75
313.636
312.517
311.391
310.26
309.121
307.975
306.818
322.455
321.366
320.275
319.183
318.088
316.991
315.889
314.783
313.671
312.553
311.429
310.297
309.157
308.008
306.85
322.458
321.374
320.289
319.202
318.112
317.019
315.922
314.819
313.711
312.596
311.473
310.341
309.2
308.047
306.879
322.461
321.383
320.304
319.223
318.139
317.051
315.959
314.861
313.756
312.644
311.524
310.393
309.253
308.1
306.936
322.465
321.393
320.321
319.246
318.168
317.087
316
314.908
313.808
312.7
311.582
310.454
309.314
308.161
306.986
322.468
321.404
320.339
319.272
318.201
317.127
316.047
314.96
313.866
312.763
311.649
310.524
309.387
308.239
307.088
322.472
321.416
320.359
319.3
318.237
317.17
316.098
315.019
313.931
312.834
311.725
310.603
309.468
308.32
307.154
322.477
321.43
320.381
319.331
318.277
317.219
316.155
315.084
314.004
312.914
311.811
310.693
309.56
308.413
307.268
322.481
321.444
320.405
319.364
318.32
317.271
316.217
315.156
314.085
313.003
311.907
310.795
309.662
308.508
307.331
322.487
321.459
320.431
319.4
318.366
317.328
316.285
315.234
314.175
313.103
312.017
310.911
309.781
308.62
307.408
322.492
321.475
320.458
319.438
318.416
317.39
316.358
315.32
314.273
313.215
312.14
311.046
309.924
308.768
307.58
322.498
321.492
320.486
319.479
318.469
317.455
316.437
315.413
314.381
313.338
312.279
311.2
310.091
308.939
307.716
322.504
321.51
320.516
319.521
318.524
317.524
316.521
315.512
314.497
313.472
312.434
311.376
310.29
309.161
307.978
322.51
321.529
320.548
319.565
318.582
317.597
316.609
315.617
314.62
313.616
312.602
311.573
310.52
309.422
308.212
297.727
296.518
295.423
294.375
293.352
292.344
291.345
290.354
289.367
288.383
287.402
286.422
285.443
284.466
283.489
297.952
296.768
295.645
294.567
293.517
292.486
291.467
290.457
289.453
288.454
287.459
286.466
285.474
284.484
283.495
298.188
296.974
295.834
294.737
293.668
292.618
291.581
290.555
289.536
288.523
287.514
286.508
285.504
284.502
283.501
298.294
297.128
295.993
294.887
293.804
292.739
291.688
290.647
289.615
288.588
287.567
286.549
285.533
284.519
283.506
298.382
297.258
296.131
295.02
293.928
292.851
291.787
290.733
289.688
288.65
287.616
286.587
285.56
284.535
283.512
298.544
297.389
296.256
295.14
294.039
292.952
291.877
290.813
289.757
288.707
287.663
286.623
285.586
284.551
283.517
298.638
297.502
296.369
295.247
294.139
293.044
291.96
290.886
289.82
288.761
287.707
286.657
285.61
284.565
283.522
298.778
297.614
296.472
295.344
294.229
293.127
292.035
290.953
289.878
288.81
287.747
286.688
285.632
284.578
283.526
298.858
297.708
296.563
295.43
294.31
293.202
292.103
291.013
289.931
288.855
287.784
286.717
285.653
284.591
283.53
298.977
297.798
296.645
295.507
294.382
293.268
292.164
291.068
289.979
288.896
287.818
286.743
285.672
284.602
283.534
299.035
297.868
296.714
295.574
294.446
293.328
292.219
291.117
290.022
288.933
287.848
286.767
285.689
284.613
283.537
299.101
297.927
296.773
295.631
294.501
293.38
292.267
291.161
290.061
288.966
287.876
286.789
285.705
284.622
283.541
299.133
297.972
296.821
295.68
294.549
293.425
292.309
291.2
290.096
288.996
287.901
286.808
285.719
284.63
283.543
299.169
298.009
296.861
295.721
294.59
293.465
292.347
291.234
290.126
289.023
287.923
286.826
285.731
284.638
283.546
299.186
298.037
296.893
295.756
294.625
293.499
292.379
291.264
290.153
289.047
287.943
286.842
285.743
284.645
283.548
299.199
298.059
296.92
295.785
294.655
293.529
292.408
291.291
290.177
289.067
287.96
286.856
285.753
284.651
283.55
299.219
298.08
296.944
295.81
294.68
293.554
292.432
291.314
290.198
289.086
287.976
286.868
285.762
284.657
283.552
299.232
298.098
296.964
295.832
294.703
293.577
292.454
291.334
290.217
289.102
287.99
286.879
285.77
284.661
283.554
299.25
298.114
296.981
295.85
294.722
293.596
292.472
291.351
290.233
289.116
288.002
286.888
285.777
284.666
283.555
299.259
298.127
296.995
295.866
294.738
293.612
292.488
291.366
290.247
289.129
288.012
286.897
285.783
284.669
283.556
299.27
298.138
297.008
295.879
294.752
293.626
292.502
291.38
290.259
289.139
288.021
286.904
285.788
284.673
283.557
299.275
298.146
297.018
295.89
294.764
293.638
292.514
291.391
290.269
289.149
288.029
286.911
285.793
284.675
283.558
299.281
298.154
297.026
295.9
294.774
293.648
292.524
291.401
290.278
289.157
288.036
286.916
285.797
284.678
283.559
299.284
298.159
297.033
295.908
294.782
293.657
292.533
291.409
290.286
289.164
288.042
286.921
285.8
284.68
283.56
299.287
298.164
297.039
295.915
294.79
293.665
292.54
291.416
290.293
289.17
288.047
286.925
285.804
284.682
283.561
299.291
298.168
297.045
295.92
294.796
293.671
292.547
291.423
290.299
289.175
288.052
286.929
285.806
284.684
283.561
299.293
298.172
297.049
295.925
294.801
293.677
292.553
291.428
290.304
289.18
288.056
286.932
285.809
284.685
283.562
299.297
298.175
297.053
295.93
294.806
293.682
292.557
291.433
290.308
289.184
288.059
286.935
285.811
284.686
283.562
299.299
298.178
297.056
295.933
294.81
293.686
292.561
291.437
290.312
289.187
288.062
286.937
285.812
284.687
283.562
299.301
298.18
297.059
295.936
294.813
293.689
292.565
291.44
290.315
289.19
288.065
286.939
285.814
284.688
283.563
299.302
298.182
297.061
295.939
294.816
293.692
292.568
291.443
290.318
289.192
288.067
286.941
285.815
284.689
283.563
299.304
298.184
297.063
295.941
294.818
293.695
292.57
291.446
290.32
289.195
288.069
286.942
285.816
284.69
283.563
299.304
298.185
297.065
295.943
294.821
293.697
292.573
291.448
290.322
289.196
288.07
286.944
285.817
284.69
283.563
299.305
298.186
297.066
295.945
294.822
293.699
292.574
291.449
290.324
289.198
288.071
286.945
285.818
284.691
283.564
299.306
298.187
297.067
295.946
294.824
293.7
292.576
291.451
290.325
289.199
288.073
286.946
285.819
284.691
283.564
299.306
298.188
297.068
295.947
294.825
293.702
292.577
291.452
290.327
289.2
288.074
286.946
285.819
284.692
283.564
299.307
298.189
297.069
295.948
294.826
293.703