/*--------------------------------*- C++ -*----------------------------------*\
| =========                 |                                                 |
| \\      /  F ield         | OpenFOAM: The Open Source CFD Toolbox           |
|  \\    /   O peration     | Version:  5.x                                   |
|   \\  /    A nd           | Web:      www.OpenFOAM.org                      |
|    \\/     M anipulation  |                                                 |
\*---------------------------------------------------------------------------*/
FoamFile
{
    version     2.0;
    format      ascii;
    class       volScalarField;
    location    "0.6";
    object      gradTy;
}
// * * * * * * * * * * * * * * * * * * * * * * * * * * * * * * * * * * * * * //

dimensions      [0 -1 0 1 0 0 0];

internalField   nonuniform List<scalar> 
6300
(
32268.5
32205.7
32142.9
32080.3
32018.1
31956.2
31894.7
31833.8
31773.5
31713.9
31655.1
31597.2
31540.3
31484.4
31429.6
-0.0590722
-0.177485
-0.296701
-0.417169
-0.539187
-0.662859
-0.788039
-0.914268
-1.04074
-1.16629
-1.28945
-1.40854
-1.52185
-1.62784
-1.72546
-0.0981382
-0.2949
-0.493082
-0.693493
-0.896706
-1.10297
-1.31208
-1.52333
-1.73538
-1.94624
-2.15334
-2.3537
-2.5442
-2.72204
-2.8852
-0.1367
-0.410854
-0.687191
-0.966962
-1.25112
-1.54014
-1.83391
-2.13151
-2.4311
-2.72983
-3.02386
-3.30859
-3.57909
-3.83081
-4.06041
-0.174507
-0.524586
-0.877784
-1.23594
-1.60052
-1.97241
-2.35171
-2.73748
-3.12745
-3.51787
-3.90344
-4.27746
-4.63249
-4.9614
-5.25875
-0.211239
-0.635159
-1.06335
-1.49839
-1.94247
-2.39711
-2.86287
-3.33903
-3.82311
-4.31053
-4.79428
-5.26504
-5.71177
-6.12329
-6.49066
-0.246493
-0.741385
-1.24193
-1.75165
-2.27368
-2.81045
-3.36338
-3.93236
-4.51511
-5.1065
-5.69777
-6.27625
-6.82583
-7.3289
-7.77022
-0.279819
-0.841894
-1.41122
-1.99246
-2.58994
-3.20739
-3.84756
-4.5116
-5.19816
-5.90221
-6.61363
-7.31593
-7.98591
-8.59569
-9.11854
-0.310688
-0.935077
-1.56849
-2.21687
-2.88601
-3.58134
-4.30758
-5.06799
-5.86334
-6.69013
-7.53813
-8.38735
-9.20554
-9.94862
-10.5685
-0.338518
-1.01916
-1.71064
-2.42031
-3.15564
-3.92412
-4.73308
-5.58906
-6.49665
-7.45634
-8.46078
-9.48904
-10.4994
-11.4237
-12.1739
-0.362712
-1.09229
-1.83445
-2.5979
-3.39184
-4.2261
-5.1112
-6.05809
-7.07735
-8.17718
-9.35883
-10.6077
-11.878
-13.0715
-14.0267
-0.382713
-1.15275
-1.9368
-2.74477
-3.58744
-4.47693
-5.42715
-6.45427
-7.57692
-8.81547
-10.1887
-11.7039
-13.3321
-14.9561
-16.2927
-0.398064
-1.1991
-2.01507
-2.8567
-3.73593
-4.66668
-5.6658
-6.75443
-7.95994
-9.31822
-10.8756
-12.6859
-14.789
-17.1268
-19.2946
-0.408473
-1.2304
-2.06752
-2.93079
-3.83262
-4.78773
-5.81451
-6.93719
-8.18949
-9.62099
-11.3083
-13.3738
-16.0102
-19.4665
-23.6826
-0.413865
-1.24641
-2.09362
-2.96609
-3.87575
-4.83676
-5.86689
-6.98977
-8.23911
-9.667
-11.3616
-13.4895
-16.4102
-21.045
-30.2941
31380.4
31336.6
31293.6
31251.6
31210.5
31170.4
31131.3
31093.2
31056.1
31020.1
30985.1
30951.2
30918.4
30886.6
30856
30826.4
30797.9
30770.5
30744.1
30718.7
30694.3
30670.8
30648.3
30626.7
30606
30586.1
30567
30548.6
30530.9
30513.9
30497.6
30481.8
30466.5
30451.8
30437.5
30423.6
30410.1
30396.9
30384
30371.4
30359
30346.8
30334.7
30322.7
30310.8
30299
30287.1
30275.1
30263.1
30251
30238.7
30226.2
30213.4
30200.4
30187.1
30173.3
30159.2
30144.7
30129.6
30114
30097.9
30081.1
30063.7
30045.6
30026.8
30007.1
29986.7
29965.4
29943.3
29920.2
29896.2
29871.2
29845.2
29818.2
29790.1
29760.9
29730.7
29699.3
29666.9
29633.3
29598.6
29562.8
29525.8
29487.7
29448.6
29408.4
29367
29324.7
29281.4
29237
-1.80685
-1.87484
-1.93722
-1.99454
-2.04737
-2.09614
-2.14095
-2.18157
-2.2174
-2.24756
-2.27106
-2.28692
-2.29438
-2.2929
-2.2823
-2.26263
-2.23419
-2.1974
-2.15276
-2.10081
-2.04211
-1.97727
-1.90696
-1.83188
-1.75277
-1.67037
-1.5854
-1.49854
-1.41038
-1.3215
-1.23236
-1.14339
-1.05491
-0.967187
-0.88038
-0.794585
-0.709826
-0.626083
-0.543303
-0.461412
-0.380316
-0.299894
-0.219995
-0.140427
-0.0609641
0.0186449
0.0986528
0.179292
0.260754
0.34317
0.426612
0.511086
0.596546
0.6829
0.770014
0.857721
0.94582
1.03408
1.12226
1.21011
1.29738
1.38381
1.46917
1.55316
1.63548
1.71576
1.79359
1.8685
1.94003
2.00771
2.07112
2.12984
2.18347
2.23157
2.27371
2.30941
2.33822
2.35974
2.37369
2.37987
2.37823
2.36872
2.3513
2.3258
2.29197
2.24947
2.19794
2.13711
2.06692
1.98752
-3.02056
-3.13318
-3.23622
-3.33084
-3.41824
-3.49931
-3.57438
-3.64302
-3.70411
-3.75597
-3.79667
-3.82437
-3.83761
-3.8355
-3.81772
-3.78451
-3.73645
-3.67436
-3.59912
-3.51163
-3.41284
-3.30375
-3.18546
-3.05917
-2.92615
-2.7877
-2.64502
-2.49928
-2.3515
-2.20261
-2.05341
-1.90461
-1.75676
-1.6103
-1.4655
-1.32248
-1.18127
-1.0418
-0.903969
-0.767652
-0.632701
-0.498928
-0.366086
-0.233853
-0.10183
0.0304302
0.163388
0.297466
0.433005
0.570238
0.709276
0.850122
0.992686
1.1368
1.28224
1.42872
1.5759
1.72337
1.87072
2.01752
2.16334
2.30778
2.45045
2.59093
2.72869
2.86314
2.99356
3.11913
3.23906
3.35254
3.45887
3.55737
3.6474
3.72828
3.79924
3.85945
3.90808
3.94441
3.96793
3.97837
3.97569
3.95995
3.93115
3.88908
3.83326
3.763
3.67755
3.57631
3.45902
3.32595
-4.24935
-4.40547
-4.54754
-4.67777
-4.79847
-4.91143
-5.01738
-5.11571
-5.20449
-5.28082
-5.34137
-5.38302
-5.40335
-5.40103
-5.37575
-5.32813
-5.2593
-5.17063
-5.06348
-4.9391
-4.79877
-4.64382
-4.47581
-4.29648
-4.10771
-3.9114
-3.70937
-3.50326
-3.29452
-3.08444
-2.87416
-2.66469
-2.45685
-2.25124
-2.04823
-1.84796
-1.65036
-1.4553
-1.26259
-1.07204
-0.883483
-0.696694
-0.511356
-0.32701
-0.143056
0.0412121
0.226531
0.413575
0.602877
0.794783
0.989435
1.1868
1.38672
1.58895
1.79315
1.99891
2.20574
2.41306
2.62022
2.82657
3.03153
3.23457
3.43519
3.63288
3.82698
4.01664
4.2008
4.37824
4.5477
4.70802
4.85822
4.99743
5.12486
5.23961
5.34059
5.42651
5.49601
5.54789
5.58135
5.5961
5.5923
5.57033
5.53044
5.47246
5.39564
5.29871
5.18022
5.03892
4.87414
4.6861
-5.50036
-5.69772
-5.87565
-6.03819
-6.18967
-6.3335
-6.47126
-6.60209
-6.72278
-6.82841
-6.91333
-6.97238
-7.00178
-6.99966
-6.96604
-6.90236
-6.81081
-6.69363
-6.55274
-6.38968
-6.20586
-6.00286
-5.78262
-5.54753
-5.30026
-5.0435
-4.77974
-4.51116
-4.2396
-3.96668
-3.69389
-3.42256
-3.15385
-2.88858
-2.62717
-2.36969
-2.11592
-1.86553
-1.61818
-1.37366
-1.13181
-0.892451
-0.655267
-0.419667
-0.18479
0.0504347
0.287149
0.526397
0.768976
1.01536
1.26567
1.5198
1.77746
2.03827
2.30181
2.56758
2.83492
3.103
3.3709
3.63767
3.90254
4.16486
4.42419
4.68002
4.93168
5.17809
5.41775
5.64884
5.8695
6.0781
6.27338
6.45445
6.62056
6.77075
6.90361
7.01719
7.10927
7.17786
7.22168
7.24051
7.23504
7.20647
7.15576
7.08297
6.98695
6.86544
6.71571
6.53531
6.32278
6.07807
-6.7833
-7.01783
-7.22579
-7.41447
-7.5918
-7.7643
-7.93515
-8.10317
-8.26294
-8.40601
-8.5228
-8.60472
-8.6459
-8.64396
-8.59991
-8.51706
-8.39958
-8.25113
-8.07427
-7.8705
-7.64095
-7.38707
-7.11118
-6.8165
-6.50683
-6.18602
-5.85742
-5.5237
-5.18697
-4.84906
-4.5118
-4.17697
-3.84619
-3.5206
-3.20069
-2.8863
-2.57684
-2.27156
-1.96989
-1.67158
-1.37666
-1.0852
-0.796988
-0.511352
-0.227073
0.0574836
0.34411
0.634431
0.92963
1.23031
1.53649
1.84782
2.16375
2.48378
2.80743
3.13416
3.4632
3.7934
4.12338
4.45175
4.77741
5.09972
5.41844
5.73342
6.04418
6.3495
6.64726
6.93469
7.20892
7.46759
7.70923
7.93325
8.1394
8.32708
8.4946
8.63901
8.75655
8.84366
8.8982
8.92009
8.91124
8.87467
8.81302
8.7271
8.61512
8.47297
8.29551
8.0781
7.81782
7.51416
-8.11119
-8.37573
-8.60324
-8.80657
-9.00036
-9.19693
-9.40257
-9.61563
-9.82673
-10.0211
-10.1822
-10.2955
-10.3519
-10.3487
-10.2895
-10.1815
-10.0328
-9.8495
-9.63453
-9.38846
-9.11109
-8.80305
-8.46689
-8.10714
-7.72957
-7.33989
-6.9426
-6.54072
-6.13617
-5.73068
-5.32634
-4.92569
-4.53121
-4.1446
-3.7664
-3.39596
-3.03186
-2.67252
-2.31688
-1.96474
-1.61666
-1.27336
-0.93509
-0.601162
-0.269824
0.0614977
0.395708
0.735403
1.08237
1.4373
1.7999
2.1692
2.54416
2.92408
3.30862
3.69747
4.08984
4.48417
4.87823
5.26976
5.65712
6.03976
6.41808
6.7929
7.16452
7.53177
7.8916
8.23948
8.57063
8.88146
9.17033
9.43762
9.68467
9.9122
10.1186
10.2993
10.4473
10.5561
10.6214
10.6436
10.627
10.5786
10.5049
10.4084
10.2863
10.131
9.93247
9.68224
9.37499
9.00946
-9.50381
-9.7862
-10.0146
-10.2115
-10.4038
-10.6153
-10.858
-11.1295
-11.4132
-11.6829
-11.909
-12.0671
-12.1425
-12.1332
-12.0483
-11.9037
-11.7151
-11.4926
-11.2388
-10.9508
-10.6247
-10.2589
-9.85601
-9.42295
-8.96933
-8.50433
-8.03406
-7.56125
-7.08645
-6.61038
-6.13533
-5.66533
-5.2047
-4.75633
-4.32079
-3.89638
-3.47991
-3.06804
-2.65872
-2.25199
-1.8497
-1.45422
-1.06689
-0.687203
-0.312519
0.0613833
0.439432
0.825927
1.22364
1.63326
2.05363
2.4824
2.9174
3.35769
3.80355
4.25565
4.71362
5.17524
5.63663
6.09363
6.54351
6.98584
7.42254
7.85672
8.29084
8.72438
9.15276
9.56789
9.96112
10.3264
10.6619
10.9704
11.2573
11.5269
11.7788
12.0055
12.1938
12.3299
12.4056
12.4216
12.3874
12.3179
12.2282
12.1252
12.0042
11.8498
11.6426
11.3672
11.0148
10.5836
-10.9931
-11.2731
-11.4702
-11.6215
-11.7783
-11.987
-12.2701
-12.6239
-13.0178
-13.4051
-13.7317
-13.9555
-14.0528
-14.0246
-13.8912
-13.6871
-13.4445
-13.1791
-12.8906
-12.5664
-12.1942
-11.7668
-11.2873
-10.7672
-10.2244
-9.67532
-9.12824
-8.58378
-8.03776
-7.48786
-6.93634
-6.3908
-5.85995
-5.34901
-4.85867
-4.38489
-3.92094
-3.45948
-2.99648
-2.53251
-2.07264
-1.62308
-1.18748
-0.765843
-0.353935
0.0554288
0.471097
0.900386
1.3478
1.81378
2.29526
2.78661
3.28297
3.78319
4.28937
4.80523
5.33194
5.86645
6.40112
6.92746
7.4404
7.93961
8.43016
8.92008
9.41738
9.92375
10.4322
10.927
11.3909
11.813
12.191
12.5332
12.8533
13.1657
13.4738
13.7654
14.0135
14.1886
14.274
14.27
14.1962
14.0843
13.9684
13.8655
13.7679
13.6423
13.4487
13.1606
12.7657
12.2642
-12.6335
-12.8778
-12.9897
-13.0222
-13.0765
-13.2501
-13.579
-14.059
-14.6304
-15.2133
-15.701
-16.0244
-16.1425
-16.0658
-15.8346
-15.5249
-15.2053
-14.8977
-14.5925
-14.2504
-13.8421
-13.349
-12.7761
-12.1433
-11.4878
-10.8428
-10.2181
-9.60806
-8.99423
-8.36727
-7.72838
-7.09476
-6.48622
-5.91171
-5.37246
-4.85901
-4.35819
-3.85296
-3.3355
-2.80696
-2.28057
-1.7717
-1.28783
-0.830376
-0.39162
0.0404436
0.483182
0.948767
1.44527
1.97202
2.5227
3.08361
3.643
4.20008
4.76124
5.33911
5.93894
6.55732
7.1775
7.78042
8.35689
8.90562
9.43839
9.97241
10.5305
11.1197
11.7307
12.33
12.8804
13.3622
13.7711
14.1267
14.4592
14.8097
15.191
15.5868
15.9369
16.1752
16.2698
16.2171
16.0583
15.8545
15.6882
15.5965
15.5703
15.5308
15.389
15.1063
14.6685
14.0918
-14.5221
-14.6719
-14.6223
-14.39
-14.2017
-14.2893
-14.6699
-15.3629
-16.2267
-17.1589
-17.9076
-18.3894
-18.5136
-18.33
-17.8918
-17.3778
-16.9496
-16.6137
-16.3488
-16.0304
-15.6135
-15.047
-14.3524
-13.5532
-12.737
-11.9822
-11.2877
-10.6387
-9.97052
-9.26476
-8.51372
-7.76345
-7.06429
-6.42435
-5.84981
-5.31562
-4.80246
-4.26466
-3.69105
-3.07884
-2.46374
-1.88473
-1.3505
-0.868286
-0.419948
0.00983045
0.462142
0.952444
1.49904
2.09571
2.73538
3.38283
4.00647
4.61122
5.20921
5.84157
6.51943
7.24588
7.97899
8.67181
9.31364
9.89493
10.4452
10.9905
11.5989
12.2844
13.0463
13.804
14.4686
15.017
15.4281
15.7537
16.0395
16.4093
16.8877
17.4742
18.0216
18.3687
18.4779
18.317
17.9855
17.571
17.3007
17.2332
17.3924
17.5667
17.5328
17.276
16.7719
16.1272
-16.8422
-16.7523
-16.517
-15.6937
-14.928
-14.9046
-15.3091
-16.4187
-17.7227
-19.3667
-20.4968
-21.2675
-21.326
-20.9594
-20.0564
-19.1057
-18.5598
-18.2262
-18.181
-17.9511
-17.5994
-16.9284
-16.0788
-14.9869
-13.8971
-13.0341
-12.2914
-11.6967
-11.0004
-10.2271
-9.29759
-8.35829
-7.55681
-6.84263
-6.26888
-5.74173
-5.28202
-4.72777
-4.10203
-3.35475
-2.59485
-1.9332
-1.33817
-0.85734
-0.421466
-0.0531587
0.38646
0.875105
1.48075
2.15749
2.9369
3.71637
4.39712
5.03212
5.60772
6.27852
7.02998
7.92483
8.83844
9.63652
10.3575
10.9288
11.4588
11.9173
12.5562
13.3389
14.3673
15.4113
16.2237
16.8684
17.2074
17.4372
17.4975
17.8513
18.4276
19.4165
20.393
20.903
21.0733
20.6609
20.0302
19.078
18.6192
18.5416
19.1904
19.9006
19.9956
19.7997
19.0757
18.4639
-20.01
-19.0409
-19.2566
-16.9126
-14.5835
-14.9021
-14.9307
-17.1923
-18.7268
-22.3124
-23.6013
-25.1692
-24.7487
-24.3594
-22.2879
-20.249
-19.8624
-19.4218
-20.2779
-20.046
-20.044
-19.0659
-18.1532
-16.4166
-14.7298
-13.9122
-13.0813
-12.9004
-12.1409
-11.4139
-10.0952
-8.75426
-7.92326
-7.05832
-6.62055
-6.07048
-5.89753
-5.29365
-4.68788
-3.64866
-2.58429
-1.88556
-1.16119
-0.781525
-0.325556
-0.218761
0.240254
0.629316
1.36011
2.07145
3.1384
4.19212
4.85374
5.53862
5.86913
6.59935
7.33403
8.57679
9.86428
10.7123
11.6167
12.022
12.5752
12.5841
13.3059
14.0391
15.6652
17.3515
18.2195
19.1593
19.143
19.3635
18.5319
18.9713
19.3715
21.3751
23.4342
23.9247
24.5058
23.317
22.5358
19.8722
19.3864
18.8015
20.8977
23.1177
22.875
23.0815
21.2154
21.3515
-25.5074
-19.6203
-25.6801
-18.1075
-10.4243
-15.3156
-11.3351
-19.0117
-16.7761
-28.5641
-26.3031
-31.9334
-28.1256
-30.1809
-24.4719
-19.0124
-21.2424
-18.7496
-23.9414
-21.8097
-23.8945
-21.1093
-21.4146
-17.7747
-14.3109
-14.8098
-12.9354
-14.9376
-13.235
-13.4531
-10.9251
-8.41627
-8.33884
-6.65913
-7.13423
-5.85644
-7.13398
-5.86262
-5.89829
-3.97904
-2.04737
-1.87497
-0.487908
-0.815672
0.273085
-0.891733
0.194624
-0.108763
1.26736
1.47323
3.35899
5.23262
5.277
6.55559
5.55507
6.91388
6.90654
9.16454
11.5233
11.7071
13.595
12.9023
14.4757
12.2241
14.0392
13.4533
16.8765
20.4699
20.112
22.8267
20.7371
22.8043
17.7352
20.147
18.0056
23.2528
28.7332
26.8149
30.486
25.3849
27.7507
17.5288
20.295
15.1992
22.4251
29.88
25.1059
29.3466
20.4707
26.0742
-41.8683
-2.99379
-51.7316
-19.4594
11.8447
-28.5018
9.04972
-35.1019
5.37124
-55.0435
-17.6391
-52.2861
-23.0573
-47.1809
-26.2944
-6.70084
-29.4212
-7.00989
-38.1496
-17.5004
-34.7568
-18.7016
-30.3567
-18.8783
-8.18474
-19.1242
-7.20663
-22.3096
-11.5631
-19.4466
-11.7272
-4.5766
-11.0614
-3.15662
-10.1719
-1.96251
-12.0409
-4.54947
-9.92391
-4.32722
1.02314
-3.61329
2.65499
-2.88946
4.11706
-4.80647
2.15018
-3.26551
2.85971
-1.5442
3.59708
8.90746
3.92309
10.8546
1.84349
9.19565
3.21683
9.60729
16.3143
10.2482
19.2895
10.5192
21.8841
6.00776
18.2291
7.0939
17.8417
29.2779
17.5791
33.4115
16.3446
36.5201
6.16432
27.8773
5.99774
24.7927
44.6845
21.6539
49.0956
16.6978
51.0893
-3.52032
32.5219
-6.14935
23.6197
54.2488
14.3524
54.4964
-1.12776
41.5397
29187.2
29131.6
29074.8
29016.9
28957.9
28898
28837.3
28775.8
28713.6
28650.9
28587.8
28524.2
28460.3
28396.3
28332.1
1.89063
1.77373
1.64759
1.51452
1.37694
1.23712
1.09702
0.958188
0.82168
0.688098
0.557638
0.43016
0.305257
0.182327
0.0606349
3.16313
2.96618
2.75343
2.529
2.29718
2.06198
1.8268
1.59424
1.36608
1.14324
0.925985
0.713999
0.506524
0.302483
0.100586
4.455
4.17447
3.87096
3.55087
3.22079
2.88679
2.55389
2.22583
1.90504
1.59269
1.28897
0.993245
0.704294
0.420458
0.139795
5.77524
5.40569
5.00501
4.58266
4.14827
3.71044
3.27605
2.85005
2.4354
2.03336
1.64381
1.2656
0.896863
0.535204
0.177912
7.13461
6.668
6.16064
5.62644
5.07915
4.5306
3.98981
3.46285
2.95305
2.46139
1.98714
1.52835
1.08224
0.645517
0.21453
8.54612
7.97066
7.34278
6.68303
6.01105
5.34284
4.68969
4.05852
3.4525
2.87189
2.31486
1.77826
1.25813
0.750008
0.249189
10.0265
9.32474
8.55588
7.75108
6.93855
6.13952
5.36733
4.62896
3.92654
3.25874
2.62203
2.01156
1.42186
0.847116
0.281371
11.599
10.7443
9.80349
8.82563
7.85144
6.90829
6.01043
5.16313
4.36584
3.61444
2.90283
2.22398
1.57053
0.935139
0.310519
13.2994
12.2487
11.0871
9.89553
8.73244
7.63054
6.60186
5.64659
4.75891
3.93018
3.15076
2.41086
1.70104
1.01231
0.336059
15.1865
13.8643
12.4008
10.9369
9.55258
8.27915
7.11906
6.06176
5.09256
4.19636
3.35897
2.5675
1.81034
1.07692
0.35744
17.3679
15.6199
13.7135
11.8975
10.2615
8.81421
7.53293
6.38824
5.35279
4.40344
3.52104
2.68966
1.89575
1.12749
0.374192
20.0989
17.5315
14.9342
12.6759
10.7807
9.18235
7.80947
6.60491
5.5265
4.54326
3.63187
2.77415
1.95537
1.16301
0.385992
24.0302
19.4723
15.815
13.0908
11.0021
9.32416
7.9168
6.69478
5.60462
4.61093
3.68878
2.81951
1.98839
1.18307
0.392724
30.2871
20.5117
15.7604
12.8692
10.8124
9.19453
7.83793
6.65215
5.58588
4.60679
3.69255
2.82651
1.99541
1.18806
0.394511
-0.414718
-1.24862
-2.09612
-2.9669
-3.87176
-4.82318
-5.83634
-6.93077
-8.13321
-9.48328
-11.0452
-12.9333
-15.3729
-18.8463
-24.3936
-0.412034
-1.24012
-2.08037
-2.94133
-3.8322
-4.76315
-5.74573
-6.79337
-7.92201
-9.15066
-10.5005
-11.985
-13.5585
-14.8726
-14.1629
-0.406533
-1.22308
-2.05013
-2.89485
-3.76463
-4.66706
-5.60966
-6.59931
-7.64075
-8.73316
-9.86163
-10.9744
-11.9229
-12.3038
-11.0881
-0.398589
-1.19868
-2.0075
-2.83082
-3.67424
-4.54287
-5.44063
-6.36886
-7.32355
-8.29012
-9.23314
-10.0772
-10.6804
-10.8431
-10.5475
-0.388593
-1.16813
-1.95468
-2.7527
-3.5662
-4.39826
-5.25016
-6.11959
-6.99758
-7.86305
-8.67309
-9.34633
-9.74318
-9.69987
-9.41839
-0.376933
-1.13264
-1.89379
-2.6637
-3.44512
-4.23972
-5.04725
-5.8639
-6.67971
-7.47411
-8.20792
-8.80619
-9.11142
-8.7212
-6.14237
-0.36397
-1.0933
-1.82671
-2.56659
-3.31477
-4.07209
-4.83777
-5.60835
-6.3761
-7.12681
-7.83691
-8.4685
-8.96229
-9.26182
-9.60611
-0.350015
-1.05105
-1.75502
-2.46359
-3.17795
-3.89854
-4.62473
-5.35443
-6.08371
-6.80721
-7.52036
-8.22571
-8.9476
-9.77078
-10.8636
-0.335337
-1.00669
-1.68003
-2.35644
-3.03667
-3.72098
-4.40914
-5.10053
-5.79486
-6.49426
-7.20906
-7.97084
-8.86214
-10.0919
-12.1813
-0.320159
-0.960888
-1.6028
-2.24651
-2.89241
-3.54063
-4.19119
-4.84441
-5.5021
-6.17018
-6.86488
-7.62555
-8.54117
-9.81557
-11.9651
-0.304674
-0.9142
-1.52422
-2.13494
-2.74641
-3.35853
-3.97126
-4.58504
-5.20185
-5.82724
-6.47464
-7.17227
-7.97065
-8.93101
-9.95652
-0.289046
-0.867113
-1.44507
-2.02274
-2.59982
-3.17587
-3.75047
-4.32344
-4.8954
-5.46874
-6.04928
-6.64872
-7.28733
-8.00084
-8.89373
-0.27342
-0.820054
-1.36604
-1.91085
-2.45382
-2.9941
-3.53068
-4.0624
-4.58782
-5.10501
-5.61059
-6.09768
-6.55173
-6.94581
-7.20867
-0.257922
-0.773404
-1.28777
-1.80016
-2.30958
-2.81477
-3.31416
-3.80559
-4.28581
-4.74915
-5.1846
-5.56937
-5.85761
-5.98169
-6.03224
-0.242665
-0.727497
-1.21081
-1.69147
-2.16818
-2.63937
-3.10305
-3.55644
-3.99536
-4.4125
-4.7937
-5.10791
-5.27733
-5.06848
-3.58313
-0.227743
-0.68262
-1.13564
-1.58545
-2.03054
-2.46911
-2.89898
-3.31725
-3.71989
-4.10068
-4.44923
-4.74684
-4.95965
-5.04163
-5.07904
-0.213236
-0.639009
-1.06266
-1.48267
-1.89736
-2.30484
-2.70288
-3.08883
-3.4595
-3.81116
-4.14005
-4.44456
-4.73274
-5.04569
-5.50692
-0.199206
-0.596853
-0.992175
-1.38353
-1.76915
-2.14706
-2.51512
-2.87094
-3.21222
-3.53737
-3.84776
-4.15355
-4.4886
-4.94674
-5.75536
-0.185704
-0.556297
-0.924419
-1.28835
-1.64624
-1.9961
-2.3358
-2.66312
-2.97608
-3.27378
-3.55865
-3.84217
-4.15899
-4.60443
-5.45161
-0.172764
-0.517443
-0.859557
-1.19733
-1.52887
-1.85216
-2.16504
-2.46524
-2.75051
-3.01906
-3.27047
-3.50766
-3.74005
-3.98317
-4.2006
-0.160409
-0.480361
-0.797698
-1.11061
-1.4172
-1.71543
-2.00307
-2.2777
-2.53653
-2.77622
-2.99216
-3.17649
-3.31372
-3.37979
-3.42897
-0.148653
-0.445088
-0.738899
-1.02828
-1.31133
-1.58602
-1.85014
-2.10112
-2.33584
-2.54989
-2.73583
-2.87806
-2.93684
-2.78822
-1.94816
-0.137499
-0.411635
-0.683171
-0.950328
-1.21125
-1.46396
-1.70631
-1.93584
-2.14952
-2.34311
-2.50987
-2.63762
-2.70405
-2.67688
-2.58983
-0.126943
-0.379984
-0.630482
-0.876706
-1.11687
-1.3491
-1.5714
-1.78159
-1.97716
-2.155
-2.31103
-2.43984
-2.53634
-2.60721
-2.71875
-0.116973
-0.3501
-0.580763
-0.807294
-1.028
-1.24113
-1.4449
-1.63751
-1.81714
-1.98209
-2.13115
-2.26457
-2.38652
-2.50941
-2.6519
-0.107573
-0.321931
-0.533916
-0.741936
-0.944387
-1.13966
-1.32618
-1.50247
-1.66734
-1.82026
-1.9622
-2.09734
-2.23614
-2.39813
-2.6041
-0.0987228
-0.295412
-0.489828
-0.680453
-0.865773
-1.04429
-1.21458
-1.3754
-1.5259
-1.66612
-1.79802
-1.92767
-2.06976
-2.25646
-2.55302
-0.0903997
-0.270476
-0.44838
-0.622666
-0.791895
-0.954651
-1.10959
-1.25553
-1.39164
-1.51781
-1.63548
-1.74947
-1.8725
-2.03865
-2.35486
-0.0825811
-0.247053
-0.409455
-0.568405
-0.722527
-0.870459
-1.01087
-1.14253
-1.26433
-1.37547
-1.47557
-1.56507
-1.64543
-1.71676
-1.74802
-0.0752438
-0.225075
-0.372936
-0.51751
-0.657476
-0.791508
-0.918272
-1.03641
-1.14449
-1.24085
-1.3231
-1.38711
-1.42473
-1.42284
-1.39784
-0.0683648
-0.204472
-0.338712
-0.469831
-0.596565
-0.717629
-0.831691
-0.937321
-1.03286
-1.11608
-1.18337
-1.22756
-1.23157
-1.14508
-0.77888
-0.0619204
-0.185175
-0.306666
-0.425212
-0.539612
-0.648636
-0.750996
-0.845283
-0.929835
-1.00245
-1.05975
-1.09602
-1.10135
-1.06165
-0.987468
-0.0558859
-0.167108
-0.276679
-0.383488
-0.486412
-0.584296
-0.675939
-0.760047
-0.83516
-0.899508
-0.950794
-0.986057
-1.00247
-1.00226
-1.01376
-0.0502359
-0.150196
-0.248621
-0.34448
-0.436731
-0.524315
-0.606145
-0.6811
-0.748017
-0.805702
-0.853022
-0.889272
-0.915226
-0.93485
-0.95379
-0.0449434
-0.134359
-0.222358
-0.307994
-0.390312
-0.468352
-0.541155
-0.607777
-0.66734
-0.719155
-0.762996
-0.799717
-0.832463
-0.868009
-0.915868
-0.039981
-0.119512
-0.197749
-0.273827
-0.346882
-0.41605
-0.480486
-0.539392
-0.592095
-0.638206
-0.67797
-0.713
-0.747837
-0.792717
-0.867407
-0.0353205
-0.105571
-0.17465
-0.241776
-0.30617
-0.367057
-0.423684
-0.47535
-0.521473
-0.561721
-0.596284
-0.626488
-0.656313
-0.696817
-0.784244
-0.0309333
-0.0924504
-0.152919
-0.211638
-0.267911
-0.321042
-0.370352
-0.415191
-0.454974
-0.489231
-0.517675
-0.540306
-0.557441
-0.568419
-0.559711
-0.0267911
-0.0800645
-0.132411
-0.183213
-0.23185
-0.277702
-0.320149
-0.358574
-0.392353
-0.420822
-0.443146
-0.458
-0.462906
-0.453764
-0.435133
-0.0228652
-0.0683279
-0.112987
-0.156304
-0.197739
-0.236744
-0.272761
-0.30521
-0.333457
-0.356721
-0.373841
-0.382657
-0.378176
-0.345756
-0.23058
-0.019127
-0.0571545
-0.0945022
-0.130714
-0.165329
-0.197876
-0.22787
-0.254792
-0.278053
-0.29692
-0.310335
-0.316597
-0.312889
-0.295261
-0.266327
-0.0155475
-0.046458
-0.0768138
-0.106242
-0.134365
-0.160796
-0.185131
-0.206937
-0.225731
-0.240936
-0.251822
-0.257501
-0.257304
-0.252658
-0.255274
-0.0120977
-0.0361507
-0.0597759
-0.0826856
-0.104588
-0.125183
-0.144161
-0.161193
-0.175926
-0.187978
-0.196948
-0.202521
-0.204839
-0.205047
-0.203979
-0.00874785
-0.0261439
-0.0432403
-0.0598356
-0.0757259
-0.0907028
-0.104553
-0.117059
-0.128004
-0.137183
-0.144449
-0.14983
-0.153865
-0.15835
-0.169134
-0.00546817
-0.0163478
-0.0270569
-0.037481
-0.0475047
-0.0570118
-0.0658874
-0.074022
-0.0813233
-0.0877354
-0.0932741
-0.0980941
-0.102599
-0.107305
-0.110569
-0.00222858
-0.00667211
-0.0110746
-0.0154085
-0.0196469
-0.0237645
-0.0277415
-0.0315708
-0.0352711
-0.0389066
-0.042608
-0.0465926
-0.051208
-0.0572767
-0.0698978
0.00100107
0.00297375
0.00485812
0.00659499
0.00812409
0.00938216
0.0102986
0.0107867
0.0107298
0.00996094
0.00825007
0.00533723
0.00118431
-0.00270937
0.00287536
0.00425094
0.0126804
0.0208923
0.0287417
0.0360823
0.0427654
0.0486354
0.0535217
0.0572228
0.0594804
0.0599431
0.0581245
0.0533951
0.0452731
0.0350248
0.00755117
0.0225381
0.0371787
0.0512422
0.0644981
0.0767147
0.0876573
0.0970817
0.10472
0.110249
0.113226
0.112935
0.107967
0.0947354
0.0602125
0.0109318
0.0326371
0.0538671
0.0743058
0.0936384
0.111552
0.127738
0.141887
0.153687
0.162797
0.168788
0.171003
0.168287
0.158994
0.145062
0.014423
0.0430675
0.0711074
0.0981409
0.123769
0.147597
0.169241
0.188334
0.204533
0.217522
0.226988
0.23251
0.233192
0.226491
0.202986
0.018055
0.0539199
0.0890503
0.122957
0.155155
0.185166
0.212525
0.236802
0.257622
0.27471
0.287947
0.2974
0.30325
0.305686
0.307795
0.0218579
0.0652852
0.107847
0.148967
0.188069
0.224586
0.257963
0.287686
0.31332
0.334595
0.351559
0.364819
0.37571
0.385143
0.383089
0.0258622
0.0772547
0.127651
0.176385
0.222789
0.266198
0.305953
0.341428
0.372067
0.397499
0.417773
0.433917
0.449224
0.472621
0.53056
0.0300983
0.0899199
0.148615
0.205429
0.2596
0.31036
0.356935
0.398549
0.434458
0.464015
0.486889
0.503636
0.517165
0.536168
0.580916
0.0345963
0.103372
0.170893
0.236318
0.298793
0.357446
0.411379
0.459657
0.501288
0.535206
0.5603
0.575632
0.581357
0.581899
0.594939
0.0393856
0.117699
0.194635
0.269267
0.340653
0.407825
0.469772
0.525409
0.573506
0.612561
0.640532
0.654351
0.649204
0.619013
0.572695
0.0444946
0.132987
0.219984
0.304481
0.385454
0.46185
0.53257
0.596424
0.652039
0.697655
0.730637
0.746295
0.734502
0.66739
0.442062
0.0499507
0.149318
0.24708
0.342155
0.433447
0.519836
0.60016
0.673191
0.737555
0.791566
0.83282
0.857362
0.858276
0.825703
0.768975
0.0557796
0.16677
0.276049
0.382467
0.484862
0.582052
0.67284
0.756008
0.830302
0.894383
0.946662
0.984903
1.00538
1.00087
0.951523
0.0620057
0.185415
0.307014
0.425587
0.539906
0.648734
0.750838
0.84502
0.930184
1.00545
1.07031
1.12485
1.1699
1.20725
1.24839
0.0686519
0.205322
0.340089
0.471672
0.598778
0.720104
0.834361
0.940328
1.03699
1.12378
1.20117
1.27148
1.33984
1.41112
1.45826
0.0757395
0.226557
0.375383
0.520878
0.661678
0.796401
0.923664
1.04213
1.15068
1.24871
1.33701
1.41955
1.50784
1.63186
1.87678
0.0832884
0.249178
0.413
0.573354
0.72881
0.877897
1.0191
1.15086
1.27172
1.38046
1.47691
1.56369
1.65113
1.76878
1.98931
0.0913159
0.273239
0.45303
0.629241
0.800378
0.964884
1.1211
1.26721
1.4012
1.52081
1.62357
1.70746
1.77352
1.83437
1.93522
0.0998363
0.298785
0.495553
0.688657
0.876561
1.05764
1.23013
1.39199
1.54072
1.6729
1.78339
1.8637
1.89962
1.8723
1.80968
0.10886
0.325847
0.540624
0.751689
0.957489
1.15638
1.34656
1.52592
1.69176
1.8401
1.9642
2.05085
2.06973
1.93483
1.32481
0.118394
0.354444
0.588274
0.818379
1.04322
1.26117
1.47051
1.66926
1.85498
2.02417
2.17108
2.28511
2.34669
2.3274
2.25638
0.12844
0.384583
0.638509
0.888727
1.13372
1.37194
1.60181
1.82166
2.0297
2.22376
2.40082
2.55587
2.67989
2.75598
2.74048
0.138997
0.416259
0.691317
0.962697
1.22892
1.48852
1.74007
1.98228
2.21414
2.43517
2.64587
2.84824
3.04643
3.24827
3.48801
0.150063
0.44946
0.746672
1.04024
1.32871
1.61066
1.8848
2.15008
2.40611
2.65378
2.89672
3.14355
3.41049
3.71432
3.99394
0.161632
0.484173
0.804548
1.12131
1.433
1.73822
2.03565
2.3243
2.60387
2.87569
3.14486
3.42494
3.74898
4.19725
4.98864
0.173698
0.520382
0.864921
1.20587
1.54176
1.87114
2.19258
2.5048
2.80698
3.09943
3.38541
3.67582
4.00123
4.44198
5.19685
0.186257
0.558069
0.927768
1.29391
1.65502
2.00954
2.35586
2.69224
3.01682
3.32764
3.62287
3.90237
4.17339
4.46859
4.8824
0.199297
0.597208
0.993058
1.38542
1.77281
2.1536
2.52598
2.88781
3.23617
3.56661
3.8712
4.13479
4.32873
4.41284
4.46235
0.212804
0.63776
1.06074
1.48035
1.89512
2.30342
2.70338
3.09265
3.46791
3.82346
4.14793
4.41553
4.56028
4.38109
3.1003
0.226758
0.679663
1.13071
1.57859
2.02187
2.45897
2.8881
3.30714
3.71324
4.1018
4.46404
4.78148
5.01671
5.11429
5.15474
0.241127
0.722829
1.20285
1.67997
2.15284
2.61996
3.07974
3.53051
3.97062
4.3983
4.81111
5.20438
5.56862
5.88703
6.11587
0.255867
0.767133
1.27695
1.78423
2.2877
2.78595
3.27751
3.76115
4.23649
4.70497
5.17159
5.64729
6.15218
6.72181
7.44935
0.270922
0.812407
1.35276
1.89105
2.42609
2.95646
3.48063
3.99741
4.50694
5.01275
5.52557
6.0697
6.69056
7.4467
8.27737
0.286211
0.858426
1.42994
2.00003
2.56761
3.13114
3.68873
4.23852
4.77977
5.31543
5.85755
6.43857
7.13472
8.11954
9.82149
0.301629
0.904887
1.50804
2.11066
2.71181
3.30979
3.90207
4.48536
5.05627
5.61337
6.16225
6.72718
7.37809
8.29397
9.92544
0.317031
0.951371
1.58642
2.22221
2.85807
3.49224
4.12147
4.74057
5.34209
5.91675
6.45548
6.95576
7.43707
7.97105
8.68458
0.33222
0.997309
1.6642
2.33359
3.00535
3.67794
4.34771
5.00773
5.64629
6.24475
6.77506
7.19711
7.45903
7.52298
7.60995
0.34694
1.04194
1.74015
2.44321
3.15188
3.86541
4.58049
5.28955
5.97802
6.61975
7.16944
7.54923
7.61802
7.05842
4.77393
0.360863
1.08427
1.81262
2.54879
3.29488
4.05162
4.81721
5.58538
6.34188
7.05828
7.68137
8.11681
8.21289
7.79123
6.98155
0.373593
1.12311
1.87956
2.64732
3.43031
4.23147
5.05189
5.88901
6.73321
7.56119
8.32315
8.91949
9.16671
8.79288
7.70776
0.38468
1.15706
1.93852
2.73514
3.55293
4.39774
5.27472
6.18741
7.13542
8.10948
9.07942
9.96398
10.5512
10.2878
7.76985
0.393643
1.18464
1.98685
2.80808
3.65661
4.54143
5.47251
6.46095
7.51912
8.66011
9.8944
11.2143
12.5257
13.3473
11.4375
0.400003
1.20434
2.02184
2.86189
3.73488
4.6528
5.63023
6.68578
7.8449
9.14534
10.6492
12.4698
14.8398
18.3025
24.2264
23.4145
17.4954
14.1855
11.9672
10.2672
8.85355
7.62004
6.51135
5.49462
4.54792
3.65507
2.80322
1.98163
1.18086
0.392283
10.12
12.3603
11.8301
10.7254
9.54333
8.40133
7.32406
6.31159
5.35727
4.45267
3.58921
2.75859
1.95295
1.16485
0.387136
5.94826
9.14816
9.87303
9.53668
8.79101
7.90362
6.98259
6.07109
5.18508
4.32862
3.50035
2.69644
1.91197
1.14154
0.379574
4.43882
7.65396
8.65225
8.63156
8.13655
7.42876
6.63405
5.81252
4.9921
4.18477
3.39438
2.62065
1.86113
1.11229
0.370025
6.86116
7.69861
8.13849
8.05525
7.62931
7.01375
6.3037
5.55282
4.78977
4.02893
3.27666
2.53483
1.80276
1.0784
0.358914
7.83337
8.01873
7.98739
7.71635
7.25327
6.66389
6.00131
5.30125
4.58563
3.86692
3.15152
2.44208
1.73894
1.04107
0.346626
9.15851
8.48872
8.00218
7.51027
6.96445
6.36445
5.72456
5.06018
4.3834
3.7024
3.02207
2.34481
1.67135
1.00128
0.333493
9.80521
8.83086
8.02012
7.34112
6.71283
6.09231
5.46448
4.82742
4.18385
3.53724
2.89032
2.24478
1.60131
0.959847
0.319782
10.8832
9.05878
7.94605
7.1363
6.45541
5.82488
5.21049
4.59892
3.9862
3.37209
2.75746
2.14318
1.52979
0.917384
0.305705
10.6683
8.79193
7.66108
6.84156
6.16266
5.54591
4.95425
4.37097
3.78931
3.20713
2.6242
2.04086
1.45751
0.874361
0.291424
8.89807
8.00691
7.15949
6.44881
5.82641
5.24922
4.69194
4.14167
3.59258
3.04254
2.49108
1.93844
1.38501
0.831141
0.277066
7.96781
7.19112
6.56259
5.99445
5.45848
4.93845
4.42453
3.91134
3.39636
2.87877
2.35866
1.83647
1.31275
0.788021
0.262734
6.50605
6.27214
5.92346
5.51747
5.07924
4.6232
4.15641
3.68207
3.20178
2.71664
2.22758
1.73547
1.24112
0.745252
0.248512
5.46983
5.43264
5.32389
5.06268
4.71215
4.31522
3.89336
3.45677
3.01045
2.55711
2.09851
1.63595
1.17049
0.703056
0.234477
3.2834
4.64268
4.83004
4.66973
4.37712
4.02439
3.64041
3.23811
2.82386
2.40113
1.9721
1.53837
1.10118
0.661625
0.220693
4.71325
4.66645