/*--------------------------------*- C++ -*----------------------------------*\
| =========                 |                                                 |
| \\      /  F ield         | OpenFOAM: The Open Source CFD Toolbox           |
|  \\    /   O peration     | Version:  5.x                                   |
|   \\  /    A nd           | Web:      www.OpenFOAM.org                      |
|    \\/     M anipulation  |                                                 |
\*---------------------------------------------------------------------------*/
FoamFile
{
    version     2.0;
    format      ascii;
    class       volScalarField;
    location    "0.6";
    object      gradTx;
}
// * * * * * * * * * * * * * * * * * * * * * * * * * * * * * * * * * * * * * //

dimensions      [0 -1 0 1 0 0 0];

internalField   nonuniform List<scalar> 
6300
(
-62.8632
-62.7823
-62.6201
-62.376
-62.049
-61.6383
-61.1429
-60.5619
-59.8952
-59.143
-58.3067
-57.3883
-56.3914
-55.3203
-54.1801
-62.9422
-62.8616
-62.7001
-62.4568
-62.1309
-61.7212
-61.2265
-60.6459
-59.9789
-59.2256
-58.3871
-57.4655
-56.4643
-55.3881
-54.2423
-63.0998
-63.0199
-62.8598
-62.6184
-62.2947
-61.8872
-61.3943
-60.8146
-60.1472
-59.3917
-58.5489
-57.6207
-56.6107
-55.5239
-54.3665
-63.3353
-63.2566
-63.0987
-62.8605
-62.5404
-62.1366
-61.6469
-61.0692
-60.4018
-59.6436
-58.7945
-57.8563
-56.8326
-55.7291
-54.5532
-63.6474
-63.5704
-63.4159
-63.1824
-62.8679
-62.47
-61.9856
-61.4118
-60.7455
-59.9845
-59.1277
-58.176
-57.1329
-56.0052
-54.8023
-64.0344
-63.9599
-63.81
-63.5832
-63.2769
-62.8878
-62.412
-61.845
-61.1822
-60.4195
-59.5541
-58.5854
-57.5166
-56.3553
-55.1141
-64.4938
-64.4225
-64.2791
-64.0615
-63.7666
-63.3904
-62.9275
-62.372
-61.717
-60.9557
-60.0822
-59.0934
-57.9912
-56.7841
-55.4889
-65.0222
-64.9553
-64.8203
-64.615
-64.3357
-63.9775
-63.5339
-62.9967
-62.3564
-61.6022
-60.7239
-59.7135
-58.5692
-57.2997
-55.9274
-65.6155
-65.5539
-65.4297
-65.2402
-64.9815
-64.648
-64.2318
-63.7226
-63.1076
-62.3711
-61.4959
-60.4657
-59.271
-57.9167
-56.432
-66.268
-66.2131
-66.1021
-65.9325
-65.7002
-65.3991
-65.0205
-64.5525
-63.9785
-63.277
-62.4211
-61.3809
-60.1305
-58.6627
-57.0104
-66.9731
-66.9261
-66.8308
-66.6852
-66.4853
-66.2254
-65.8967
-65.4862
-64.9749
-64.3353
-63.5286
-62.5043
-61.2056
-59.5913
-57.6836
-67.723
-67.6848
-67.6077
-67.4899
-67.3284
-67.1184
-66.8525
-66.5186
-66.0976
-65.5585
-64.8516
-63.9
-62.5942
-60.8113
-58.5061
-68.5086
-68.4802
-68.4229
-68.3358
-68.2175
-68.0651
-67.874
-67.636
-67.3361
-66.9471
-66.4171
-65.6477
-64.4578
-62.5519
-59.6197
-69.3202
-69.3018
-69.2653
-69.2107
-69.1383
-69.0483
-68.9403
-68.8128
-68.6614
-68.4741
-68.2193
-67.8135
-67.0351
-65.3169
-61.4543
-70.1475
-70.1392
-70.1232
-70.1009
-70.0744
-70.047
-70.0235
-70.011
-70.0199
-70.0658
-70.1698
-70.3496
-70.5505
-70.2243
-65.8265
-53.0816
-52.0384
-50.9583
-49.8441
-48.6988
-47.5246
-46.3242
-45.0998
-43.8542
-42.5903
-41.3117
-40.0225
-38.727
-37.4302
-36.1369
-34.8524
-33.5816
-32.3291
-31.0997
-29.8975
-28.7265
-27.5902
-26.492
-25.4347
-24.4207
-23.4522
-22.5308
-21.6578
-20.834
-20.0602
-19.3365
-18.6631
-18.0398
-17.4663
-16.9421
-16.4667
-16.0397
-15.6604
-15.3283
-15.0428
-14.8037
-14.6103
-14.4625
-14.3599
-14.3025
-14.2903
-14.3235
-14.4023
-14.527
-14.6983
-14.9166
-15.1824
-15.4964
-15.859
-16.2707
-16.7318
-17.2427
-17.8033
-18.4139
-19.0742
-19.7839
-20.5428
-21.3501
-22.2053
-23.1074
-24.0554
-25.048
-26.0837
-27.1607
-28.277
-29.4302
-30.6179
-31.8372
-33.0853
-34.3587
-35.6541
-36.9676
-38.2953
-39.633
-40.9765
-42.3212
-43.6628
-44.9967
-46.3186
-47.6236
-48.9069
-50.1637
-51.3886
-52.5766
-53.7225
-53.1385
-52.0908
-51.0064
-49.8884
-48.7395
-47.5621
-46.3582
-45.1302
-43.8803
-42.6114
-41.3272
-40.0316
-38.7292
-37.4253
-36.1249
-34.8333
-33.5556
-32.2967
-31.0613
-29.8534
-28.6773
-27.5364
-26.4341
-25.3733
-24.3564
-23.3855
-22.4623
-21.588
-20.7634
-19.9891
-19.2654
-18.5922
-17.9694
-17.3965
-16.873
-16.3985
-15.9723
-15.5937
-15.2623
-14.9776
-14.739
-14.5461
-14.3986
-14.2962
-14.2388
-14.2264
-14.2591
-14.3373
-14.4614
-14.6319
-14.8494
-15.1144
-15.4277
-15.7897
-16.2008
-16.6616
-17.1722
-17.7328
-18.3435
-19.0042
-19.7145
-20.4741
-21.2825
-22.1389
-23.0425
-23.9923
-24.9871
-26.0253
-27.1052
-28.2247
-29.3815
-30.5731
-31.7967
-33.0493
-34.3277
-35.6284
-36.9476
-38.2812
-39.625
-40.9747
-42.3257
-43.6736
-45.014
-46.3424
-47.6542
-48.9446
-50.2087
-51.4411
-52.6364
-53.7893
-53.2519
-52.1948
-51.1019
-49.9763
-48.8207
-47.6369
-46.4267
-45.1916
-43.9334
-42.6547
-41.359
-40.0505
-38.7342
-37.4157
-36.1006
-34.7947
-33.5033
-32.2314
-30.9838
-29.7647
-28.5782
-27.428
-26.3175
-25.2496
-24.2269
-23.2514
-22.3246
-21.4477
-20.6216
-19.8465
-19.1228
-18.4502
-17.8283
-17.2568
-16.735
-16.2621
-15.8375
-15.4606
-15.1307
-14.8473
-14.6098
-14.4179
-14.2711
-14.1691
-14.1116
-14.0988
-14.1307
-14.2077
-14.3304
-14.4993
-14.7151
-14.9785
-15.2902
-15.6508
-16.0609
-16.5209
-17.031
-17.5916
-18.2026
-18.864
-19.5755
-20.3366
-21.1469
-22.0057
-22.9123
-23.8657
-24.8648
-25.908
-26.9937
-28.1197
-29.2837
-30.4831
-31.7152
-32.977
-34.2653
-35.5767
-36.9072
-38.2528
-39.6089
-40.971
-42.3346
-43.6951
-45.0483
-46.3897
-47.7151
-49.0197
-50.2985
-51.5459
-52.7561
-53.9234
-53.4213
-52.3496
-51.2436
-50.1068
-48.9417
-47.7494
-46.5307
-45.2858
-44.0158
-42.7225
-41.4092
-40.0807
-38.7426
-37.4014
-36.0637
-34.7358
-33.4234
-32.1319
-30.866
-29.6299
-28.4278
-27.2635
-26.1406
-25.0621
-24.0306
-23.0481
-22.1162
-21.2357
-20.4074
-19.6314
-18.9078
-18.2362
-17.6162
-17.047
-16.5277
-16.0574
-15.6354
-15.261
-14.9334
-14.6521
-14.4165
-14.2261
-14.0805
-13.9791
-13.9216
-13.9081
-13.9387
-14.0138
-14.1341
-14.3004
-14.5135
-14.7744
-15.0837
-15.4422
-15.8505
-16.3092
-16.8186
-17.379
-17.9906
-18.6531
-19.3662
-20.1296
-20.9427
-21.805
-22.7158
-23.6745
-24.6799
-25.7307
-26.8251
-27.9609
-29.1357
-30.3469
-31.5916
-32.8671
-34.1703
-35.4978
-36.8456
-38.2094
-39.5843
-40.9654
-42.3478
-43.727
-45.0991
-46.4599
-47.8055
-49.1315
-50.4327
-51.7033
-52.9368
-54.1266
-53.6454
-52.5527
-51.4287
-50.2774
-49.1011
-47.8996
-46.6718
-45.4161
-44.1315
-42.819
-41.4816
-40.1248
-38.7558
-37.3825
-36.0131
-34.6549
-33.3143
-31.9964
-30.7059
-29.4471
-28.2239
-27.0405
-25.9007
-24.8079
-23.7648
-22.7734
-21.8348
-20.9499
-20.119
-19.3421
-18.6191
-17.9494
-17.3322
-16.7665
-16.251
-15.7846
-15.3663
-14.9952
-14.6707
-14.3923
-14.1594
-13.9714
-13.8275
-13.7271
-13.6698
-13.6553
-13.6839
-13.7561
-13.8729
-14.0354
-14.2446
-14.5018
-14.8076
-15.1631
-15.569
-16.0257
-16.534
-17.0942
-17.7064
-18.3704
-19.0859
-19.8522
-20.6689
-21.5356
-22.4518
-23.4171
-24.4308
-25.4917
-26.5979
-27.7471
-28.9364
-30.1631
-31.4245
-32.7181
-34.041
-35.3902
-36.7616
-38.1504
-39.551
-40.9579
-42.3655
-43.7693
-45.1657
-46.5515
-47.9236
-49.2783
-50.6102
-51.9132
-53.1795
-54.4012
-53.9217
-52.7999
-51.6521
-50.4836
-49.296
-48.0873
-46.853
-45.5877
-44.2874
-42.9512
-41.582
-40.1868
-38.7753
-37.3585
-35.9469
-34.5495
-33.173
-31.8222
-30.5012
-29.2137
-27.9636
-26.7556
-25.5942
-24.4833
-23.4258
-22.4235
-21.4774
-20.5876
-19.754
-18.9765
-18.2548
-17.5882
-16.9754
-16.4149
-15.905
-15.4439
-15.0304
-14.6637
-14.3431
-14.0684
-13.839
-13.6543
-13.5131
-13.4145
-13.3575
-13.3418
-13.3675
-13.4356
-13.5473
-13.7043
-13.9082
-14.1602
-14.4615
-14.813
-15.2153
-15.6694
-16.1761
-16.7359
-17.349
-18.0151
-18.7336
-19.5036
-20.3245
-21.196
-22.1182
-23.0912
-24.115
-25.1886
-26.31
-27.4763
-28.6841
-29.9302
-31.212
-32.5275
-33.8746
-35.251
-36.6528
-38.0745
-39.5091
-40.9493
-42.3886
-43.8222
-45.2473
-46.6624
-48.0665
-49.457
-50.8289
-52.1748
-53.4855
-54.7506
-54.2461
-53.0837
-51.9046
-50.7166
-49.5209
-48.3116
-47.0785
-45.8095
-44.4949
-43.1308
-41.7201
-40.2726
-38.8029
-37.3273
-35.8609
-34.4145
-32.9952
-31.6061
-30.2492
-28.9271
-27.6438
-26.4048
-25.216
-24.0827
-23.0082
-21.9941
-21.04
-20.1454
-19.3094
-18.5319
-17.8126
-17.1507
-16.5446
-15.9919
-15.4899
-15.036
-14.6286
-14.2669
-13.9508
-13.6805
-13.4558
-13.2757
-13.1389
-13.0432
-12.9872
-12.9699
-12.9915
-13.0535
-13.1579
-13.3072
-13.5036
-13.749
-14.0445
-14.3907
-14.7885
-15.2388
-15.743
-16.302
-16.9164
-17.5856
-18.3083
-19.083
-19.9085
-20.7847
-21.7125
-22.6934
-23.7286
-24.8178
-25.9585
-27.1467
-28.3776
-29.6469
-30.952
-32.2919
-33.6667
-35.0758
-36.516
-37.9804
-39.4593
-40.9422
-42.42
-43.8872
-45.3428
-46.789
-48.2286
-49.6618
-51.0841
-52.4864
-53.8562
-55.1797
-54.6112
-53.3904
-52.1691
-50.9602
-49.7645
-48.57
-47.3554
-46.0967
-44.774
-43.3777
-41.9113
-40.3905
-38.8392
-37.2837
-35.7463
-34.2415
-32.7745
-31.3443
-29.948
-28.5855
-27.2611
-25.9826
-24.7591
-23.5985
-22.5051
-21.4792
-20.5184
-19.6198
-18.782
-18.0047
-17.2888
-16.634
-16.0381
-15.4972
-15.0066
-14.5625
-14.1623
-13.8057
-13.4938
-13.2281
-13.0094
-12.8364
-12.7065
-12.6162
-12.5623
-12.5431
-12.5588
-12.6116
-12.7051
-12.8433
-13.0299
-13.2671
-13.5557
-13.8956
-14.2873
-14.732
-15.2321
-15.7898
-16.4062
-17.0804
-17.8096
-18.5905
-19.4207
-20.3003
-21.2315
-22.2187
-23.2658
-24.3738
-25.5396
-26.7566
-28.0167
-29.313
-30.6425
-32.0067
-33.4101
-34.8565
-36.3447
-37.8656
-39.4041
-40.9426
-42.4665
-43.9687
-45.4516
-46.9247
-48.3994
-49.8816
-51.3673
-52.8438
-54.2929
-55.6947
-55.0052
-53.6967
-52.415
-51.1837
-50.0054
-48.8566
-47.6956
-46.4757
-45.159
-43.7257
-42.1811
-40.5527
-38.8823
-37.2144
-35.5854
-34.0147
-32.5019
-31.0344
-29.599
-28.1902
-26.8135
-25.4823
-24.2129
-23.0187
-21.9059
-20.8717
-19.9083
-19.0082
-18.1684
-17.3906
-16.6785
-16.0339
-15.4538
-14.9312
-14.4579
-14.027
-13.6346
-13.2815
-12.9715
-12.7096
-12.4984
-12.3364
-12.2184
-12.138
-12.0889
-12.0675
-12.0741
-12.1124
-12.1891
-12.3112
-12.4847
-12.7125
-12.9942
-13.3274
-13.7109
-14.1467
-14.6394
-15.1944
-15.8143
-16.4974
-17.2377
-18.0281
-18.8634
-19.7427
-20.6713
-21.6591
-22.7164
-23.8477
-25.0483
-26.3058
-27.6047
-28.9324
-30.2842
-31.666
-33.0924
-34.5779
-36.1268
-37.7261
-39.3492
-40.9642
-42.5444
-44.0782
-45.5741
-47.0578
-48.5591
-50.0957
-51.6632
-53.2398
-54.7965
-56.3048
-55.4104
-53.9629
-52.5872
-51.3299
-50.203
-49.1601
-48.1197
-46.9939
-45.7115
-44.2344
-42.5717
-40.7758
-38.9221
-37.0898
-35.3414
-33.7054
-32.1648
-30.6796
-29.2128
-27.7499
-26.3016
-24.8943
-23.5595
-22.323
-21.1948
-20.1638
-19.2085
-18.3113
-17.4668
-16.683
-15.9724
-15.3424
-14.7879
-14.2956
-13.8497
-13.4372
-13.0518
-12.6964
-12.3814
-12.1195
-11.9181
-11.7742
-11.6778
-11.6159
-11.5768
-11.5531
-11.5449
-11.5596
-11.609
-11.7064
-11.8625
-12.0818
-12.3598
-12.6879
-13.0608
-13.4809
-13.9586
-14.5068
-15.133
-15.8333
-16.595
-17.4027
-18.2442
-19.1156
-20.0271
-21.0009
-22.0619
-23.2233
-24.4765
-25.7965
-27.1525
-28.5184
-29.8835
-31.2621
-32.6905
-34.2089
-35.8369
-37.553
-39.3065
-41.036
-42.6894
-44.2421
-45.714
-47.1653
-48.6673
-50.2647
-51.9453
-53.6634
-55.3686
-57.0222
-55.7999
-54.1242
-52.5882
-51.2878
-50.279
-49.4596
-48.6662
-47.7374
-46.5441
-45.0105
-43.1544
-41.0825
-38.9319
-36.8449
-34.9364
-33.2595
-31.7492
-30.2992
-28.8222
-27.2898
-25.7319
-24.2031
-22.7661
-21.4727
-20.3453
-19.3481
-18.4266
-17.5396
-16.6794
-15.8715
-15.1515
-14.5433
-14.0341
-13.5947
-13.1947
-12.8098
-12.4273
-12.0542
-11.7163
-11.4437
-11.2561
-11.1451
-11.0888
-11.0625
-11.0439
-11.0178
-10.9841
-10.9579
-10.9612
-11.0182
-11.1507
-11.3681
-11.6544
-11.9855
-12.3441
-12.7335
-13.1776
-13.7081
-14.3466
-15.0821
-15.8874
-16.7303
-17.5833
-18.4322
-19.2946
-20.2189
-21.264
-22.4681
-23.8097
-25.2369
-26.6874
-28.1067
-29.4646
-30.7878
-32.1598
-33.6828
-35.4208
-37.3267
-39.2989
-41.2179
-42.9795
-44.5223
-45.8837
-47.1992
-48.6379
-50.3133
-52.1725
-54.1044
-56.0139
-57.8613
-56.1306
-54.0831
-52.249
-50.8252
-50.0821
-49.722
-49.408
-48.8621
-47.8667
-46.2515
-44.0483
-41.5029
-38.8509
-36.3436
-34.1987
-32.5748
-31.2479
-29.9586
-28.5128
-26.8675
-25.1215
-23.381
-21.767
-20.3844
-19.3096
-18.4247
-17.5964
-16.7306
-15.8181
-14.9349
-14.1708
-13.603
-13.181
-12.8383
-12.5192
-12.1804
-11.7907
-11.3627
-10.9584
-10.6468
-10.4851
-10.4383
-10.4581
-10.4993
-10.5231
-10.4946
-10.4138
-10.3153
-10.2371
-10.2227
-10.318
-10.5565
-10.8857
-11.2446
-11.5844
-11.9086
-12.2734
-12.7553
-13.4219
-14.2317
-15.1272
-16.0449
-16.9295
-17.731
-18.4743
-19.2642
-20.2384
-21.5164
-23.0209
-24.6451
-26.2684
-27.7847
-29.0968
-30.2442
-31.4125
-32.8483
-34.7635
-37.0053
-39.3685
-41.6269
-43.5846
-45.0638
-46.1194
-47.0553
-48.2671
-50.0962
-52.2942
-54.5765
-56.7471
-58.822
-56.2914
-53.7339
-51.3179
-49.381
-49.3321
-49.9169
-50.4831
-50.6338
-50.0817
-48.3395
-45.4354
-42.0776
-38.5622
-35.3213
-32.7119
-31.4635
-30.6938
-29.8447
-28.4921
-26.5918
-24.5046
-22.3784
-20.4362
-18.8546
-18.002
-17.4213
-16.8217
-15.9905
-14.9159
-13.8281
-12.9089
-12.4544
-12.2153
-12.0492
-11.8736
-11.6256
-11.2106
-10.6382
-10.0687
-9.63511
-9.55027
-9.63708
-9.79781
-9.96246
-10.0789
-10.0483
-9.87018
-9.6448
-9.42231
-9.27086
-9.28009
-9.61588
-10.0755
-10.5328
-10.8484
-11.0268
-11.202
-11.538
-12.2926
-13.2593
-14.3367
-15.4087
-16.397
-17.1154
-17.5887
-18.0455
-18.7771
-20.2404
-22.0611
-24.0565
-26.0048
-27.7585
-28.9677
-29.6718
-30.2815
-31.3243
-33.637
-36.5102
-39.5895
-42.4697
-44.879
-46.2156
-46.5274
-46.5137
-47.0071
-49.347
-52.2936
-55.2084
-57.6169
-59.7911
-55.7481
-53.1791
-49.6951
-45.2175
-47.6696
-50.1386
-52.1562
-53.4175
-54.0107
-52.1009
-47.4765
-42.8798
-37.8791
-33.3907
-29.2663
-29.6642
-30.2552
-30.4572
-29.2619
-26.5869
-23.9454
-21.1121
-18.5878
-16.2763
-16.3044
-16.4466
-16.3822
-15.6021
-14.0342
-12.48
-10.9793
-10.9967
-11.1459
-11.275
-11.3338
-11.3127
-10.8585
-9.91108
-8.98445
-8.12246
-8.36943
-8.73061
-9.13323
-9.4965
-9.84775
-9.81563
-9.39606
-8.97145
-8.5065
-8.08879
-7.77316
-8.49814
-9.2699
-10.0262
-10.3115
-10.1508
-9.90049
-9.71902
-10.8593
-12.1288
-13.5556
-14.8947
-16.255
-16.8542
-16.7283
-16.433
-16.2636
-18.4513
-20.8516
-23.537
-26.0233
-28.5181
-29.5674
-29.2366
-28.5279
-27.973
-31.704
-35.7194
-40.0978
-43.991
-47.7184
-48.8431
-47.4042
-45.2418
-43.0876
-47.7234
-52.3377
-56.568
-58.8231
-60.0251
-51.2176
-53.9411
-49.5025
-31.0741
-45.9819
-51.0098
-54.9184
-57.163
-61.5445
-59.7719
-49.4786
-44.2645
-36.4592
-30.9369
-19.3098
-27.5881
-30.3784
-33.0835
-32.1642
-26.5355
-23.6641
-19.4026
-16.4347
-10.3301
-14.4442
-15.7708
-16.9752
-16.35
-13.1345
-11.0562
-6.86472
-9.35086
-10.1067
-10.6036
-10.9104
-11.6253
-11.218
-9.15541
-7.8084
-5.014
-7.02538
-7.76572
-8.52666
-9.04927
-10.1701
-10.1424
-8.93062
-8.35751
-7.52393
-6.76091
-4.76882
-7.31428
-8.48792
-10.1991
-10.4185
-9.405
-8.50122
-5.99791
-9.24154
-10.7732
-12.9025
-14.3518
-17.2108
-17.6392
-16.1136
-14.6408
-10.3572
-16.3578
-19.233
-23.3063
-26.0317
-31.3609
-32.1565
-29.3473
-26.5544
-18.4511
-29.3625
-34.407
-41.3055
-45.752
-54.3063
-55.1625
-49.323
-43.9576
-29.3902
-46.13
-52.9336
-60.7706
-61.5437
-55.2966
-54.9256
-56.169
-57.3306
-58.405
-59.3881
-60.2777
-61.0728
-61.7734
-62.3806
-62.8961
-63.3217
-63.6594
-63.9109
-64.0777
-64.1608
-54.9995
-56.2496
-57.4166
-58.4947
-59.4802
-60.3707
-61.1655
-61.865
-62.4706
-62.9841
-63.4078
-63.7436
-63.9936
-64.1594
-64.242
-55.1482
-56.4121
-57.5899
-58.6756
-59.6655
-60.5576
-61.3517
-62.0487
-62.6507
-63.1602
-63.5797
-63.9118
-64.1587
-64.3223
-64.4038
-55.3741
-56.6593
-57.8537
-58.951
-59.9472
-60.841
-61.6332
-62.3257
-62.9216
-63.4242
-63.837
-64.1631
-64.4052
-64.5653
-64.645
-55.6809
-56.9961
-58.2135
-59.3258
-60.3296
-61.2245
-62.0126
-62.6976
-63.2839
-63.7762
-64.1791
-64.4964
-64.7315
-64.8868
-64.964
-56.074
-57.4296
-58.6768
-59.8077
-60.8194
-61.7133
-62.4936
-63.1664
-63.7383
-64.2158
-64.6048
-64.91
-65.1356
-65.2843
-65.3582
-56.5615
-57.9701
-59.255
-60.4073
-61.4255
-62.3139
-63.0804
-63.7343
-64.2853
-64.7421
-65.1121
-65.4013
-65.6143
-65.7545
-65.8241
-57.1549
-58.6329
-59.9644
-61.1394
-62.1596
-63.0346
-63.7779
-64.4035
-64.9249
-65.3535
-65.6984
-65.9668
-66.1638
-66.2932
-66.3574
-57.8711
-59.4407
-60.8287
-62.0246
-63.037
-63.8851
-64.5909
-65.1751
-65.6556
-66.0467
-66.3593
-66.6015
-66.7788
-66.895
-66.9526
-58.7353
-60.4284
-61.8831
-63.0915
-64.0769
-64.8756
-65.5231
-66.0481
-66.4736
-66.8165
-67.0889
-67.2991
-67.4526
-67.5532
-67.603
-59.7862
-61.653
-63.1818
-64.3793
-65.302
-66.0157
-66.5749
-67.0181
-67.372
-67.6548
-67.8787
-68.0512
-68.1773
-68.26
-68.3009
-61.0837
-63.2142
-64.8104
-65.9397
-66.7347
-67.3092
-67.7405
-68.0746
-68.339
-68.5501
-68.7177
-68.8477
-68.9432
-69.0061
-69.0374
-62.7299
-65.3074
-66.9043
-67.8312
-68.3853
-68.7443
-69.0009
-69.1982
-69.3568
-69.4866
-69.5924
-69.6765
-69.7395
-69.7815
-69.8026
-65.0176
-68.3789
-69.666
-70.0932
-70.2283
-70.2804
-70.3179
-70.3576
-70.4006
-70.4447
-70.4868
-70.5242
-70.5544
-70.5755
-70.5864
-69.5176
-73.5227
-73.2858
-72.644
-72.1519
-71.8296
-71.6302
-71.5104
-71.4406
-71.4024
-71.3838
-71.3769
-71.3759
-71.3772
-71.3784
-70.911
-70.9114
-70.9132
-70.9185
-70.9311
-70.9567
-71.0041
-71.0872
-71.2287
-71.469
-71.8858
-72.6527
-74.254
-78.4527
-93.3666
-71.603
-71.6106
-71.627
-71.655
-71.6992
-71.7669
-71.869
-72.0229
-72.2569
-72.62
-73.2008
-74.1654
-75.8147
-78.4896
-80.5419
-72.2878
-72.3017
-72.3308
-72.3784
-72.4493
-72.5513
-72.696
-72.9007
-73.1931
-73.6178
-74.2478
-75.201
-76.6603
-78.9564
-83.5952
-72.961
-72.9802
-73.0201
-73.0837
-73.1761
-73.3044
-73.4792
-73.7154
-74.0351
-74.4708
-75.0686
-75.8832
-76.9225
-77.7939
-75.4735
-73.6189
-73.6424
-73.691
-73.7673
-73.876
-74.0233
-74.2176
-74.4698
-74.7942
-75.2091
-75.737
-76.4071
-77.2986
-78.8457
-83.8078
-74.2583
-74.2853
-74.3406
-74.4267
-74.5474
-74.7077
-74.9136
-75.1716
-75.488
-75.867
-76.3046
-76.7749
-77.2171
-77.5233
-77.5798
-74.8769
-74.9065
-74.9669
-75.0601
-75.1894
-75.3584
-75.5711
-75.8302
-76.136
-76.4826
-76.8471
-77.16
-77.2278
-76.3715
-71.4215
-75.4727
-75.5042
-75.5683
-75.6667
-75.8019
-75.9769
-76.1939
-76.4535
-76.7534
-77.0844
-77.4227
-77.7127
-77.8782
-78.0598
-80.8004
-76.0444
-76.0773
-76.144
-76.2459
-76.3852
-76.5641
-76.7844
-77.046
-77.3466
-77.6798
-78.0292
-78.3494
-78.5153
-77.9682
-73.17
-76.591
-76.6248
-76.6931
-76.7972
-76.9391
-77.1206
-77.3435
-77.6083
-77.9148
-78.2629
-78.6532
-79.0903
-79.6457
-80.8258
-86.1228
-77.1119
-77.1462
-77.2153
-77.3205
-77.4636
-77.6464
-77.8708
-78.1384
-78.4515
-78.8154
-79.242
-79.7463
-80.3403
-80.8215
-78.9028
-77.6068
-77.6411
-77.7104
-77.8157
-77.9587
-78.1413
-78.3656
-78.6338
-78.95
-79.3235
-79.774
-80.337
-81.1113
-82.4807
-86.6965
-78.0754
-78.1095
-78.1783
-78.2828
-78.4245
-78.6053
-78.8272
-79.0926
-79.4059
-79.777
-80.2253
-80.778
-81.4671
-82.1602
-81.1374
-78.518
-78.5516
-78.6194
-78.7222
-78.8614
-79.0387
-79.2558
-79.5148
-79.8188
-80.1758
-80.6013
-81.1213
-81.8181
-83.0282
-86.524
-78.9348
-78.9677
-79.034
-79.1343
-79.27
-79.4424
-79.6528
-79.9023
-80.1922
-80.526
-80.9088
-81.3388
-81.8107
-82.3057
-82.7487
-79.3265
-79.3584
-79.4227
-79.52
-79.6513
-79.8178
-80.0201
-80.2583
-80.5322
-80.8411
-81.1808
-81.5243
-81.7853
-81.6163
-79.3143
-79.6935
-79.7243
-79.7863
-79.8801
-80.0064
-80.1661
-80.3596
-80.5864
-80.845
-81.1338
-81.4473
-81.7642
-82.0564
-82.4052
-84.0927
-80.0367
-80.0663
-80.1258
-80.2156
-80.3365
-80.489
-80.6734
-80.8889
-81.1341
-81.4082
-81.7086
-82.0182
-82.2862
-82.2615
-80.2984
-80.3569
-80.3851
-80.4419
-80.5276
-80.6427
-80.7878
-80.9628
-81.1673
-81.4004
-81.6634
-81.9608
-82.2982
-82.7174
-83.4608
-86.1031
-80.655
-80.6819
-80.7358
-80.8171
-80.9263
-81.0637
-81.2292
-81.4224
-81.643
-81.8937
-82.1823
-82.5185
-82.9214
-83.3387
-82.8472
-80.932
-80.9575
-81.0085
-81.0853
-81.1884
-81.3179
-81.4737
-81.6552
-81.8619
-82.0967
-82.3679
-82.6895
-83.1136
-83.8446
-85.8903
-81.189
-81.2129
-81.261
-81.3334
-81.4303
-81.5519
-81.6978
-81.867
-82.0584
-82.2734
-82.5158
-82.7864
-83.0908
-83.4347
-83.7803
-81.4268
-81.4493
-81.4945
-81.5624
-81.6532
-81.7669
-81.903
-82.0599
-82.2359
-82.43
-82.6414
-82.857
-83.0388
-83.0207
-81.9433
-81.6466
-81.6677
-81.7099
-81.7734
-81.8583
-81.9644
-82.091
-82.2363
-82.3978
-82.5737
-82.7612
-82.9483
-83.1235
-83.3395
-84.2506
-81.8493
-81.869
-81.9084
-81.9677
-82.0468
-82.1457
-82.2634
-82.3981
-82.5471
-82.7083
-82.8788
-83.0448
-83.1782
-83.1727
-82.3643
-82.0358
-82.0542
-82.0909
-82.1461
-82.2198
-82.3119
-82.4213
-82.5465
-82.685
-82.8354
-82.9966
-83.1611
-83.3276
-83.5607
-84.4654
-82.2072
-82.2242
-82.2584
-82.3097
-82.3783
-82.4639
-82.5657
-82.6824
-82.8119
-82.954
-83.1097
-83.2731
-83.4289
-83.4794
-82.7117
-82.3643
-82.3801
-82.4118
-82.4594
-82.523
-82.6025
-82.6973
-82.8059
-82.9273
-83.0621
-83.2146
-83.3875
-83.6016
-83.9634
-85.1365
-82.5079
-82.5226
-82.5519
-82.596
-82.6549
-82.7286
-82.8165
-82.9174
-83.0304
-83.1572
-83.3027
-83.4706
-83.6699
-83.8813
-83.7294
-82.639
-82.6525
-82.6796
-82.7203
-82.7747
-82.8428
-82.924
-83.0171
-83.1214
-83.2382
-83.3726
-83.5291
-83.728
-84.0489
-84.8807
-82.7582
-82.7706
-82.7956
-82.8331
-82.8833
-82.9459
-83.0206
-83.1059
-83.2008
-83.306
-83.4246
-83.5553
-83.6997
-83.8589
-84.0104
-82.8663
-82.8778
-82.9007
-82.9352
-82.9812
-83.0388
-83.1071
-83.1848
-83.2703
-83.3636
-83.4655
-83.5692
-83.6592
-83.6717
-83.2774
-82.9641
-82.9746
-82.9956
-83.0272
-83.0695
-83.1221
-83.1844
-83.255
-83.3318
-83.4143
-83.5026
-83.5899
-83.671
-83.764
-84.1057
-83.0521
-83.0618
-83.081
-83.11
-83.1486
-83.1967
-83.2535
-83.3175
-83.3866
-83.46
-83.5376
-83.6123
-83.6727
-83.6811
-83.4003
-83.1311
-83.1399
-83.1575
-83.184
-83.2193
-83.2633
-83.3151
-83.3732
-83.4356
-83.5018
-83.5722
-83.6418
-83.709
-83.7962
-84.1109
-83.2016
-83.2096
-83.2257
-83.2499
-83.2822
-83.3224
-83.3697
-83.4226
-83.4794
-83.5397
-83.6048
-83.6702
-83.7297
-83.7506
-83.4928
-83.264
-83.2714
-83.2861
-83.3083
-83.3378
-83.3746
-83.4179
-83.4662
-83.518
-83.5733
-83.6345
-83.7
-83.7754
-83.8958
-84.2772
-83.319
-83.3257
-83.3392
-83.3595
-83.3866
-83.4203
-83.46
-83.5041
-83.5513
-83.602
-83.6587
-83.7202
-83.7883
-83.8572
-83.8083
-83.3668
-83.373
-83.3854
-83.4041
-83.429
-83.46
-83.4963
-83.5367
-83.5797
-83.6256
-83.6771
-83.7331
-83.7988
-83.8977
-84.1428
-83.408
-83.4137
-83.4252
-83.4424
-83.4654
-83.4939
-83.5274
-83.5643
-83.6032
-83.6444
-83.6897
-83.7367
-83.7847
-83.834
-83.8733
-83.4428
-83.4481
-83.4588
-83.4747
-83.496
-83.5225
-83.5534
-83.5873
-83.6226
-83.6592
-83.6987
-83.7367
-83.7681
-83.7747
-83.6625
-83.4716
-83.4765
-83.4865
-83.5014
-83.5213
-83.546
-83.5748
-83.6061
-83.6383
-83.6713
-83.7061
-83.7388
-83.767
-83.7952
-83.8813
-83.4945
-83.4992
-83.5086
-83.5227
-83.5415
-83.5648
-83.5918
-83.6211
-83.6509
-83.681
-83.7125
-83.7413
-83.7641
-83.773
-83.7152
-83.5118
-83.5163
-83.5253
-83.5387
-83.5567
-83.579
-83.6048
-83.6326
-83.6606
-83.6888
-83.7182
-83.7454
-83.7691
-83.7945
-83.8598
-83.5236
-83.5279
-83.5367
-83.5498
-83.5672
-83.5888
-83.6138
-83.6407
-83.6677
-83.6947
-83.7231
-83.7492
-83.7712
-83.7857
-83.7617
-83.53
-83.5343
-83.5429
-83.5558
-83.573
-83.5943
-83.619
-83.6454
-83.6721
-83.6987
-83.7269
-83.7531
-83.7767
-83.8012
-83.8438
-83.531
-83.5353
-83.5439
-83.5569
-83.5742
-83.5956
-83.6203
-83.6469
-83.6738
-83.7008
-83.7295
-83.7563
-83.7801
-83.8013
-83.8213
-83.5267
-83.5311
-83.5398
-83.5531
-83.5707
-83.5925
-83.6178
-83.6451
-83.6728
-83.7008
-83.7307
-83.759
-83.7834
-83.7997
-83.7857
-83.5169
-83.5214
-83.5305
-83.5442
-83.5625
-83.5851
-83.6113
-83.6398
-83.6688
-83.6985
-83.7306
-83.7618
-83.7908
-83.8166
-83.83
-83.5016
-83.5064
-83.5159
-83.5303
-83.5495
-83.5732
-83.6008
-83.6309
-83.6618
-83.6937
-83.7285
-83.7634
-83.7986
-83.8395
-83.9148
-83.4806
-83.4857
-83.4958
-83.5111
-83.5315
-83.5567
-83.5861
-83.6182
-83.6514
-83.686
-83.7237
-83.7622
-83.8008
-83.836
-83.8209
-83.4537
-83.4591
-83.47
-83.4864
-83.5083
-83.5353
-83.5669
-83.6015
-83.6375
-83.675
-83.716
-83.7582
-83.8036
-83.8647
-84.0103
-83.4206
-83.4265
-83.4383
-83.456
-83.4796
-83.5089
-83.543
-83.5806
-83.6198
-83.6607
-83.7048
-83.7494
-83.7939
-83.8322
-83.7819
-83.3811
-83.3875
-83.4003
-83.4196
-83.4452
-83.4771
-83.5143
-83.5553
-83.5984
-83.6431
-83.6908
-83.7381
-83.7867
-83.8586
-84.1002
-83.3347
-83.3417
-83.3557
-83.3767
-83.4048
-83.4396
-83.4803
-83.5255
-83.5731
-83.6226
-83.6745
-83.7232
-83.7616
-83.7644
-83.5687
-83.281
-83.2887
-83.304
-83.3271
-83.3578
-83.396
-83.4408
-83.4907
-83.5438
-83.5994
-83.6578
-83.7129
-83.7596
-83.8054
-83.982
-83.2197
-83.2281
-83.2449
-83.2701
-83.3038
-83.3458
-83.3952
-83.4506
-83.5101
-83.5734
-83.6408
-83.7057
-83.7564
-83.7531
-83.5033
-83.1501
-83.1593
-83.1777
-83.2054
-83.2423
-83.2884
-83.3428
-83.4043
-83.4712
-83.5436
-83.623
-83.7057
-83.789
-83.8692
-83.929
-83.0718
-83.0819
-83.102
-83.1322
-83.1727
-83.2232
-83.283
-83.351
-83.4258
-83.5079
-83.6003
-83.7025
-83.8222
-83.9968
-84.4279
-82.9841
-82.9951
-83.017
-83.0501
-83.0943
-83.1494
-83.215
-83.2898
-83.3725
-83.4642
-83.5681
-83.6844
-83.8154
-83.9436
-83.8502
-82.8863
-82.8983
-82.9222
-82.9582
-83.0064
-83.0665
-83.1381
-83.2198
-83.3105
-83.411
-83.5248
-83.6535
-83.8088
-84.0417
-84.6472
-82.7779
-82.7909
-82.8169
-82.856
-82.9083
-82.9737
-83.0515
-83.1403
-83.2389
-83.3474
-83.4686
-83.6015
-83.7467
-83.8782
-83.6771
-82.658
-82.6721
-82.7003
-82.7427
-82.7993
-82.8702
-82.9545
-83.0509
-83.1576
-83.2741
-83.4018
-83.538
-83.6925
-83.943
-84.8189
-82.526
-82.5412
-82.5716
-82.6174
-82.6787
-82.7553
-82.8467
-82.9511
-83.0667
-83.1922
-83.3263
-83.4591
-83.5698
-83.5708
-82.9015
-82.381
-82.3973
-82.4301
-82.4795
-82.5456
-82.6283
-82.7271
-82.8404
-82.9662
-83.1031
-83.2491
-83.3928
-83.5216
-83.6612
-84.2512
-82.2222
-82.2397
-82.275
-82.328
-82.399
-82.4881
-82.5947
-82.7177
-82.8554
-83.0068
-83.1707
-83.3341
-83.4641
-83.436
-82.6475
-82.0488
-82.0676
-82.1052
-82.162
-82.2381
-82.3337
-82.4484
-82.5816
-82.7322
-82.9009
-83.0901
-83.2959
-83.5144
-83.7361
-83.9242
-81.8599
-81.8799
-81.9201
-81.9806
-82.0618
-82.1639
-82.2868
-82.4301
-82.5936
-82.7798
-82.9951
-83.2462
-83.5607
-84.0568
-85.3639
-81.6548
-81.676
-81.7186
-81.7829
-81.8691
-81.9776
-82.1084
-82.2612
-82.4364
-82.6375
-82.8726
-83.1496
-83.4792
-83.8114
-83.5054
-81.4324
-81.4549
-81.5
-81.5679
-81.6591
-81.7738
-81.912
-82.0735
-82.2585
-82.4705
-82.7183
-83.0136
-83.394
-84.0063
-85.7057
-81.1921
-81.2157
-81.2633
-81.3349
-81.4309
-81.5516
-81.6969
-81.8661
-82.059
-82.2777
-82.5284
-82.8158
-83.1458
-83.4434
-82.8158
-80.9328
-80.9577
-81.0077
-81.0829
-81.1837
-81.3104
-81.4625
-81.6391
-81.8387
-82.0617
-82.3102
-82.5855
-82.9183
-83.5201
-85.8261
-80.6539
-80.68
-80.7323
-80.8112
-80.9168
-81.0494
-81.2085
-81.3926
-81.5995
-81.8269
-82.0707
-82.3124
-82.5022
-82.4103
-80.5529
-80.3544
-80.3817
-80.4364
-80.5188
-80.6293
-80.768
-80.9345
-81.1271
-81.3432
-81.5797
-81.8299
-82.0723
-82.2799
-82.5237
-83.9407
-80.0336
-80.062
-80.1191
-80.2051
-80.3204
-80.4654
-80.6396
-80.8418
-81.07
-81.3219
-81.5917
-81.8536
-82.0304
-81.8195
-79.7365
-79.6907
-79.7202
-79.7796
-79.8691
-79.9892
-80.1404
-80.3226
-80.5352
-80.7775
-81.0505
-81.3564
-81.691
-82.0482
-82.4124
-82.7277
-79.3248
-79.3554
-79.417
-79.5098
-79.6346
-79.7918
-79.9819
-80.2047
-80.461
-80.7552
-81.0983
-81.51
-82.0591
-83.0361
-85.971
-78.9353
-78.9669
-79.0305
-79.1264
-79.2555
-79.4185
-79.6158
-79.8476
-80.1153
-80.4248
-80.79
-81.2305
-81.7708
-82.2973
-81.3484
-78.5215
-78.554
-78.6193
-78.7181
-78.8512
-79.0194
-79.2231
-79.4623
-79.7378
-80.0548
-80.4266
-80.8787
-81.4902
-82.5801
-86.0366
-78.0828
-78.116
-78.1829
-78.2841
-78.4208
-78.5937
-78.8031
-79.0485
-79.3288
-79.6456
-80.0047
-80.4133
-80.8754
-81.2164
-79.5296
-77.6187
-77.6525
-77.7205
-77.8237
-77.9634
-78.1406
-78.3556
-78.6071
-78.8917
-79.2059
-79.5458
-79.9079
-80.3427
-81.2578
-85.5118
-77.1289
-77.1629
-77.2315
-77.3361
-77.4782
-77.6594
-77.8803
-78.1393
-78.4314
-78.7474
-79.0688
-79.349
-79.4746
-78.9774
-74.9654
-76.6133
-76.6471
-76.7157
-76.8205
-76.9641
-77.1487
-77.376
-77.6452
-77.9517
-78.2843
-78.6176
-78.8947
-79.037
-79.135
-81.1796
-76.0719
-76.1051
-76.1725
-76.2764
-76.4198
-76.6066
-76.84
-77.1221
-77.4512
-77.8196
-78.203
-78.531
-78.6285
-77.9378
-73.9762
-75.5054
-75.5371
-75.6021
-75.7029
-75.8438
-76.0301
-76.2678
-76.5631
-76.9208
-77.3436
-77.824
-78.3247
-78.7655
-79.0092
-78.9215
-74.9145
-74.9441
-75.0048
-75.0999
-75.2347
-75.4161
-75.6533
-75.9575
-76.3427
-76.8267
-77.4284
-78.1572
-79.0375
-80.3079
-83.8365
-74.3011
-74.3273
-74.3817
-74.4677
-74.5915
-74.7615
-74.9897
-75.2925
-75.6934
-76.2274
-76.9419
-77.8818
-79.0368
-80.0353
-78.494
-73.6673
-73.6891
-73.7346
-73.8076
-73.9145
-74.0648
-74.272
-74.5564
-74.9492
-75.5018
-76.2965
-77.4542
-79.143
-81.5237
-84.8489
-73.0163
-73.0325
-73.0666
-73.1224
-73.206
-73.3267
-73.4983
-73.7419
-74.0917
-74.6074
-75.3965
-76.6553
-78.767
-82.3531
-87.018
-72.3521
-72.3614
-72.3817
-72.4162
-72.4701
-72.5515
-72.6724
-72.8509
-73.1166
-73.5224
-74.168
-75.2615
-77.3655
-82.4305
-98.9789
-98.7149
-82.1237
-76.9733
-74.8415
-73.7571
-73.1361
-72.7578
-72.5181
-72.3622
-72.2601
-72.1935
-72.151
-72.1248
-72.1098
-72.1031
-87.4431
-81.9954
-78.2279
-76.109
-74.8926
-74.1544
-73.6846
-73.3732
-73.1606
-73.0133
-72.9114
-72.8418
-72.796
-72.7683
-72.7552
-84.0328
-80.6985
-78.3357
-76.7471
-75.6938
-74.9855
-74.4992
-74.157
-73.9113
-73.7334
-73.6052
-73.5145
-73.4529
-73.4146
-73.3964
-78.9142
-78.7248
-77.9041
-77.0107
-76.2534
-75.6614
-75.2117
-74.8711
-74.6127
-74.4173
-74.2715
-74.1654
-74.0917
-74.0453
-74.0228
-73.9555
-77.1873
-77.5211
-77.1769
-76.6962
-76.2376
-75.8461
-75.5253
-75.2678
-75.0649
-74.9087
-74.7922
-74.7098
-74.6572
-74.6316
-79.2579
-77.6604
-77.6069
-77.435
-77.1214
-76.7661
-76.4291
-76.1327
-75.8826
-75.6782
-75.5166
-75.3937
-75.3054
-75.2485
-75.2206
-73.2222
-77.059
-77.773
-77.7887
-77.5732
-77.2809
-76.9816
-76.7051
-76.4631
-76.26
-76.096
-75.9694
-75.8773
-75.8175
-75.7881
-81.1875
-78.624
-78.4223
-78.2998
-78.0762
-77.7993
-77.516
-77.2504
-77.014
-76.8126
-76.6479
-76.5193
-76.425
-76.3633
-76.3329
-74.3278
-78.5465
-79.0145
-78.8781
-78.6139
-78.3211
-78.0357
-77.7723
-77.5382