/*--------------------------------*- C++ -*----------------------------------*\
| =========                 |                                                 |
| \\      /  F ield         | OpenFOAM: The Open Source CFD Toolbox           |
|  \\    /   O peration     | Version:  5.x                                   |
|   \\  /    A nd           | Web:      www.OpenFOAM.org                      |
|    \\/     M anipulation  |                                                 |
\*---------------------------------------------------------------------------*/
FoamFile
{
    version     2.0;
    format      ascii;
    class       volScalarField;
    location    "0.6";
    object      T;
}
// * * * * * * * * * * * * * * * * * * * * * * * * * * * * * * * * * * * * * //

dimensions      [0 0 0 1 0 0 0];

internalField   nonuniform List<scalar> 
6300
(
322.686
322.057
321.43
320.805
320.182
319.564
318.95
318.341
317.738
317.143
316.556
315.977
315.408
314.849
314.301
322.685
322.056
321.428
320.802
320.179
319.559
318.944
318.335
317.731
317.135
316.547
315.967
315.398
314.838
314.29
322.684
322.054
321.424
320.796
320.172
319.551
318.934
318.323
317.718
317.12
316.53
315.949
315.377
314.816
314.267
322.683
322.05
321.418
320.788
320.161
319.537
318.918
318.304
317.697
317.096
316.504
315.92
315.347
314.784
314.232
322.682
322.045
321.41
320.777
320.147
319.52
318.897
318.28
317.669
317.065
316.469
315.883
315.306
314.74
314.186
322.68
322.04
321.401
320.763
320.129
319.498
318.871
318.25
317.634
317.026
316.426
315.835
315.254
314.685
314.127
322.677
322.033
321.389
320.747
320.108
319.472
318.84
318.213
317.593
316.979
316.373
315.777
315.192
314.617
314.056
322.675
322.025
321.376
320.728
320.083
319.442
318.804
318.171
317.544
316.924
316.312
315.709
315.118
314.538
313.972
322.672
322.016
321.361
320.707
320.056
319.408
318.763
318.123
317.489
316.861
316.241
315.631
315.032
314.445
313.873
322.669
322.006
321.344
320.684
320.026
319.37
318.718
318.07
317.427
316.79
316.161
315.542
314.933
314.339
313.76
322.665
321.995
321.327
320.659
319.993
319.329
318.668
318.011
317.359
316.712
316.072
315.441
314.822
314.217
313.63
322.661
321.984
321.308
320.632
319.958
319.285
318.615
317.948
317.285
316.626
315.974
315.329
314.696
314.078
313.48
322.657
321.972
321.288
320.604
319.921
319.24
318.56
317.882
317.207
316.535
315.868
315.207
314.555
313.918
313.304
322.653
321.96
321.267
320.575
319.883
319.192
318.502
317.813
317.126
316.44
315.756
315.076
314.4
313.735
313.094
322.649
321.948
321.246
320.545
319.844
319.144
318.444
317.743
317.043
316.343
315.642
314.94
314.235
313.529
312.83
313.81
313.372
312.943
312.523
312.112
311.711
311.32
310.939
310.568
310.208
309.858
309.52
309.191
308.874
308.568
308.272
307.987
307.712
307.448
307.194
306.95
306.715
306.49
306.274
306.066
305.867
305.675
305.491
305.314
305.144
304.98
304.821
304.669
304.521
304.378
304.238
304.103
303.971
303.842
303.716
303.591
303.469
303.348
303.228
303.109
302.99
302.87
302.751
302.63
302.509
302.385
302.26
302.132
302.002
301.868
301.731
301.589
301.443
301.292
301.136
300.975
300.807
300.632
300.451
300.262
300.066
299.861
299.648
299.426
299.195
298.955
298.705
298.445
298.174
297.893
297.602
297.299
296.986
296.661
296.325
295.978
295.62
295.25
294.87
294.478
294.076
293.663
293.24
292.807
292.364
313.798
313.36
312.93
312.509
312.098
311.697
311.306
310.924
310.554
310.193
309.843
309.504
309.176
308.859
308.552
308.257
307.972
307.698
307.434
307.18
306.936
306.702
306.477
306.261
306.054
305.855
305.664
305.481
305.305
305.135
304.971
304.814
304.662
304.514
304.372
304.233
304.098
303.967
303.838
303.713
303.589
303.467
303.346
303.227
303.108
302.99
302.871
302.752
302.632
302.511
302.388
302.263
302.136
302.006
301.873
301.736
301.595
301.45
301.3
301.144
300.983
300.816
300.642
300.461
300.273
300.077
299.873
299.661
299.439
299.209
298.969
298.719
298.459
298.189
297.909
297.617
297.315
297.001
296.677
296.341
295.994
295.635
295.266
294.885
294.494
294.091
293.678
293.254
292.82
292.377
313.774
313.335
312.904
312.483
312.071
311.669
311.277
310.895
310.524
310.163
309.813
309.474
309.146
308.828
308.522
308.227
307.942
307.668
307.405
307.152
306.909
306.676
306.452
306.237
306.031
305.833
305.643
305.461
305.286
305.117
304.955
304.799
304.648
304.501
304.36
304.223
304.089
303.959
303.831
303.706
303.584
303.463
303.343
303.225
303.107
302.99
302.872
302.754
302.636
302.516
302.394
302.27
302.144
302.015
301.883
301.748
301.608
301.464
301.315
301.161
301
300.834
300.662
300.482
300.295
300.1
299.897
299.686
299.465
299.236
298.997
298.748
298.488
298.219
297.939
297.648
297.346
297.033
296.708
296.373
296.026
295.667
295.297
294.916
294.524
294.121
293.707
293.283
292.848
292.403
313.738
313.297
312.865
312.443
312.03
311.627
311.234
310.852
310.479
310.118
309.767
309.428
309.099
308.782
308.476
308.181
307.897
307.624
307.362
307.11
306.868
306.636
306.413
306.2
305.996
305.8
305.612
305.431
305.258
305.091
304.93
304.776
304.626
304.482
304.342
304.207
304.075
303.946
303.82
303.697
303.576
303.457
303.339
303.222
303.106
302.99
302.874
302.758
302.641
302.522
302.402
302.28
302.156
302.029
301.899
301.765
301.627
301.485
301.337
301.185
301.026
300.862
300.691
300.513
300.328
300.134
299.933
299.723
299.504
299.276
299.038
298.79
298.532
298.264
297.985
297.694
297.393
297.08
296.756
296.42
296.073
295.715
295.345
294.963
294.57
294.166
293.751
293.326
292.89
292.443
313.689
313.246
312.813
312.389
311.975
311.571
311.177
310.793
310.42
310.058
309.706
309.366
309.037
308.72
308.414
308.12
307.837
307.565
307.304
307.053
306.813
306.583
306.362
306.151
305.949
305.755
305.569
305.391
305.22
305.056
304.898
304.745
304.598
304.456
304.319
304.186
304.056
303.929
303.806
303.685
303.566
303.449
303.333
303.219
303.104
302.991
302.877
302.763
302.648
302.531
302.414
302.294
302.172
302.047
301.919
301.788
301.652
301.512
301.367
301.217
301.061
300.899
300.73
300.554
300.371
300.18
299.981
299.773
299.556
299.33
299.094
298.848
298.591
298.324
298.046
297.756
297.456
297.144
296.82
296.485
296.137
295.778
295.408
295.026
294.632
294.227
293.811
293.383
292.946
292.497
313.628
313.183
312.748
312.322
311.906
311.5
311.105
310.72
310.345
309.981
309.629
309.288
308.959
308.642
308.337
308.043
307.761
307.49
307.231
306.982
306.744
306.516
306.298
306.089
305.89
305.699
305.516
305.341
305.173
305.012
304.857
304.707
304.563
304.424
304.29
304.159
304.032
303.909
303.788
303.67
303.554
303.439
303.326
303.214
303.102
302.991
302.88
302.768
302.656
302.543
302.428
302.311
302.192
302.07
301.945
301.816
301.684
301.547
301.405
301.257
301.104
300.945
300.779
300.607
300.426
300.238
300.041
299.836
299.621
299.397
299.164
298.919
298.665
298.399
298.123
297.835
297.535
297.224
296.901
296.565
296.218
295.859
295.488
295.105
294.71
294.304
293.886
293.456
293.016
292.565
313.553
313.106
312.669
312.241
311.823
311.416
311.018
310.631
310.255
309.889
309.536
309.194
308.865
308.547
308.242
307.95
307.669
307.4
307.142
306.896
306.66
306.435
306.22
306.015
305.819
305.631
305.452
305.28
305.116
304.959
304.807
304.662
304.521
304.386
304.255
304.128
304.004
303.884
303.767
303.652
303.539
303.427
303.317
303.208
303.1
302.992
302.884
302.775
302.666
302.556
302.444
302.331
302.215
302.097
301.975
301.85
301.721
301.588
301.45
301.306
301.157
301.001
300.839
300.669
300.492
300.307
300.114
299.912
299.7
299.479
299.248
299.006
298.754
298.49
298.216
297.929
297.631
297.321
296.998
296.663
296.316
295.956
295.584
295.2
294.804
294.396
293.977
293.545
293.102
292.647
313.465
313.015
312.576
312.146
311.726
311.317
310.917
310.527
310.148
309.781
309.426
309.083
308.752
308.435
308.131
307.839
307.56
307.293
307.038
306.794
306.561
306.34
306.128
305.927
305.735
305.552
305.377
305.21
305.05
304.897
304.75
304.609
304.473
304.341
304.214
304.091
303.972
303.855
303.742
303.63
303.521
303.414
303.307
303.202
303.097
302.992
302.888
302.783
302.678
302.571
302.464
302.354
302.243
302.128
302.011
301.89
301.765
301.636
301.502
301.363
301.218
301.066
300.908
300.742
300.569
300.389
300.199
300.001
299.793
299.575
299.347
299.108
298.858
298.597
298.325
298.041
297.744
297.435
297.113
296.778
296.431
296.07
295.698
295.313
294.916
294.506
294.084
293.65
293.204
292.745
313.363
312.91
312.468
312.037
311.615
311.203
310.801
310.408
310.026
309.656
309.298
308.953
308.622
308.305
308.001
307.712
307.435
307.17
306.917
306.677
306.447
306.23
306.023
305.826
305.639
305.461
305.291
305.129
304.974
304.826
304.685
304.548
304.417
304.291
304.169
304.05
303.935
303.823
303.713
303.607
303.502
303.398
303.296
303.195
303.094
302.993
302.893
302.792
302.691
302.589
302.485
302.381
302.274
302.164
302.051
301.936
301.816
301.692
301.562
301.428
301.288
301.141
300.987
300.826
300.658
300.482
300.297
300.103
299.9
299.686
299.461
299.226
298.979
298.721
298.451
298.169
297.875
297.567
297.246
296.911
296.563
296.202
295.829
295.443
295.044
294.633
294.209
293.772
293.322
292.859
313.246
312.79
312.346
311.913
311.491
311.077
310.671
310.275
309.888
309.513
309.151
308.803
308.471
308.155
307.853
307.566
307.291
307.03
306.78
306.543
306.318
306.104
305.903
305.712
305.531
305.358
305.195
305.038
304.889
304.747
304.611
304.481
304.356
304.235
304.117
304.004
303.893
303.786
303.682
303.58
303.48
303.381
303.284
303.187
303.09
302.994
302.897
302.801
302.705
302.608
302.51
302.41
302.308
302.204
302.097
301.986
301.872
301.754
301.63
301.501
301.366
301.225
301.076
300.921
300.758
300.587
300.408
300.219
300.021
299.811
299.591
299.359
299.115
298.861
298.594
298.316
298.024
297.719
297.398
297.064
296.714
296.352
295.977
295.59
295.191
294.779
294.353
293.913
293.459
292.99
313.111
312.653
312.209
311.776
311.354
310.938
310.529
310.127
309.734
309.351
308.984
308.632
308.299
307.983
307.685
307.401
307.13
306.872
306.625
306.392
306.171
305.963
305.767
305.583
305.409
305.244
305.087
304.937
304.795
304.659
304.53
304.407
304.288
304.173
304.061
303.953
303.848
303.746
303.647
303.55
303.456
303.363
303.27
303.178
303.086
302.994
302.902
302.811
302.72
302.628
302.536
302.442
302.346
302.248
302.147
302.042
301.934
301.823
301.706
301.584
301.455
301.319
301.176
301.026
300.869
300.704
300.532
300.35
300.157
299.953
299.737
299.508
299.268
299.017
298.755
298.481
298.194
297.891
297.571
297.236
296.885
296.519
296.142
295.755
295.356
294.944
294.517
294.075
293.616
293.141
312.955
312.497
312.054
311.626
311.207
310.791
310.378
309.968
309.564
309.17
308.793
308.436
308.101
307.788
307.495
307.218
306.952
306.697
306.453
306.222
306.005
305.803
305.616
305.441
305.276
305.119
304.969
304.826
304.69
304.562
304.441
304.326
304.214
304.106
304
303.897
303.797
303.701
303.608
303.518
303.43
303.343
303.257
303.169
303.082
302.994
302.907
302.82
302.735
302.65
302.564
302.478
302.388
302.296
302.201
302.103
302.002
301.899
301.79
301.675
301.553
301.423
301.285
301.141
300.99
300.833
300.669
300.495
300.31
300.112
299.899
299.674
299.436
299.189
298.932
298.665
298.385
298.086
297.768
297.43
297.074
296.703
296.323
295.935
295.539
295.13
294.704
294.259
293.794
293.313
312.774
312.318
311.878
311.462
311.055
310.64
310.223
309.799
309.379
308.964
308.574
308.207
307.872
307.564
307.284
307.019
306.759
306.507
306.262
306.033
305.819
305.624
305.446
305.284
305.131
304.984
304.841
304.703
304.575
304.455
304.344
304.239
304.137
304.036
303.936
303.838
303.742
303.651
303.565
303.483
303.404
303.324
303.243
303.161
303.077
302.993
302.91
302.828
302.749
302.671
302.595
302.517
302.434
302.349
302.259
302.168
302.075
301.981
301.883
301.776
301.662
301.537
301.405
301.264
301.12
300.971
300.819
300.658
300.482
300.29
300.081
299.857
299.618
299.374
299.124
298.869
298.601
298.309
297.993
297.649
297.285
296.901
296.515
296.126
295.74
295.342
294.917
294.471
293.997
293.51
312.555
312.116
311.669
311.287
310.915
310.493
310.079
309.624
309.189
308.723
308.321
307.932
307.606
307.301
307.05
306.813
306.555
306.309
306.048
305.821
305.604
305.422
305.253
305.112
304.981
304.841
304.707
304.568
304.447
304.334
304.239
304.151
304.056
303.965
303.868
303.776
303.679
303.595
303.514
303.445
303.379
303.306
303.233
303.154
303.075
302.989
302.911
302.833
302.762
302.691
302.627
302.561
302.485
302.407
302.318
302.235
302.149
302.07
301.987
301.889
301.785
301.663
301.537
301.392
301.256
301.113
300.982
300.842
300.674
300.495
300.282
300.061
299.807
299.568
299.32
299.093
298.853
298.565
298.258
297.896
297.525
297.101
296.711
296.311
295.957
295.593
295.161
294.72
294.219
293.74
312.264
311.925
311.365
311.1
310.847
310.334
309.996
309.419
309.044
308.393
308.048
307.568
307.31
306.961
306.794
306.639
306.334
306.132
305.783
305.596
305.341
305.202
305.017
304.928
304.845
304.687
304.582
304.404
304.31
304.185
304.126
304.071
303.97
303.903
303.793
303.721
303.599
303.534
303.447
303.404
303.363
303.287
303.234
303.144
303.083
302.975
302.914
302.826
302.775
302.701
302.662
302.621
302.54
302.48
302.37
302.306
302.213
302.164
302.113
302.01
301.934
301.795
301.695
301.509
301.401
301.24
301.157
301.067
300.884
300.747
300.495
300.313
299.973
299.777
299.484
299.334
299.176
298.845
298.603
298.157
297.84
297.252
296.921
296.429
296.188
295.94
295.419
295.057
294.406
294.032
291.866
291.31
290.743
290.164
289.575
288.976
288.369
287.755
287.134
286.507
285.876
285.241
284.602
283.962
283.321
291.879
291.322
290.754
290.174
289.584
288.984
288.376
287.761
287.139
286.512
285.879
285.243
284.605
283.964
283.321
291.904
291.346
290.776
290.194
289.602
289.001
288.391
287.774
287.15
286.521
285.887
285.249
284.609
283.966
283.322
291.942
291.382
290.809
290.224
289.63
289.026
288.413
287.793
287.166
286.534
285.898
285.258
284.615
283.97
283.323
291.993
291.429
290.853
290.265
289.667
289.059
288.442
287.818
287.188
286.553
285.913
285.269
284.623
283.974
283.325
292.057
291.49
290.909
290.316
289.713
289.1
288.478
287.85
287.215
286.575
285.931
285.283
284.633
283.98
283.327
292.136
291.563
290.976
290.378
289.768
289.149
288.522
287.888
287.247
286.602
285.952
285.3
284.644
283.987
283.329
292.228
291.649
291.056
290.45
289.833
289.207
288.572
287.931
287.284
286.633
285.977
285.319
284.658
283.995
283.332
292.336
291.749
291.147
290.533
289.907
289.272
288.629
287.98
287.326
286.667
286.005
285.34
284.673
284.004
283.335
292.46
291.864
291.252
290.626
289.99
289.345
288.692
288.034
287.371
286.705
286.035
285.363
284.689
284.014
283.338
292.602
291.994
291.369
290.731
290.082
289.425
288.761
288.093
287.421
286.746
286.068
285.388
284.707
284.024
283.342
292.764
292.141
291.5
290.845
290.181
289.51
288.835
288.156
287.473
286.789
286.102
285.414
284.725
284.036
283.345
292.95
292.307
291.643
290.969
290.287
289.601
288.912
288.221
287.528
286.834
286.138
285.442
284.745
284.047
283.349
293.166
292.492
291.798
291.099
290.397
289.694
288.991
288.288
287.584
286.88
286.175
285.47
284.764
284.059
283.353
293.43
292.696
291.96
291.23
290.507
289.787
289.07
288.355
287.64
286.926
286.212
285.498
284.784
284.071
283.357
322.645
321.936
321.227
320.518
319.809
319.099
318.39
317.679
316.968
316.255
315.539
314.817
314.086
313.332
312.516
322.642
321.926
321.21
320.493
319.777
319.059
318.341
317.622
316.901
316.177
315.448
314.713
313.965
313.197
312.395
322.639
321.916
321.193
320.469
319.745
319.02
318.294
317.566
316.836
316.102
315.364
314.617
313.86
313.084
312.28
322.635
321.906
321.176
320.445
319.714
318.982
318.248
317.512
316.774
316.031
315.284
314.53
313.766
312.992
312.211
322.632
321.896
321.159
320.422
319.684
318.944
318.203
317.46
316.714
315.964
315.21
314.449
313.682
312.903
312.105
322.629
321.886
321.143
320.399
319.655
318.908
318.16
317.41
316.657
315.9
315.14
314.374
313.604
312.83
312.054
322.626
321.877
321.128
320.377
319.626
318.874
318.119
317.362
316.603
315.84
315.073
314.303
313.53
312.758
312.002
322.623
321.868
321.113
320.357
319.599
318.84
318.08
317.317
316.551
315.782
315.009
314.233
313.455
312.676
311.894
322.62
321.859
321.098
320.336
319.573
318.809
318.042
317.273
316.501
315.726
314.948
314.166
313.381
312.595
311.821
322.617
321.851
321.085
320.317
319.549
318.778
318.006
317.232
316.454
315.673
314.889
314.1
313.307
312.507
311.69
322.614
321.843
321.072
320.299
319.525
318.75
317.972
317.192
316.409
315.623
314.833
314.038
313.238
312.432
311.622
322.612
321.836
321.059
320.282
319.503
318.722
317.94
317.155
316.367
315.576
314.781
313.981
313.174
312.358
311.525
322.61
321.829
321.047
320.265
319.482
318.697
317.91
317.12
316.328
315.532
314.732
313.928
313.117
312.298
311.474
322.607
321.822
321.036
320.25
319.462
318.673
317.881
317.087
316.291
315.491
314.687
313.879
313.065
312.243
311.404
322.605
321.816
321.026
320.235
319.443
318.65
317.854
317.057
316.256
315.453
314.646
313.835
313.019
312.199
311.373
322.603
321.81
321.016
320.222
319.426
318.629
317.829
317.028
316.224
315.418
314.607
313.794
312.977
312.158
311.345
322.602
321.805
321.007
320.209
319.409
318.609
317.806
317.002
316.194
315.385
314.572
313.756
312.936
312.115
311.288
322.6
321.799
320.999
320.197
319.394
318.59
317.784
316.977
316.167
315.354
314.538
313.72
312.898
312.074
311.253
322.598
321.795
320.991
320.186
319.38
318.573
317.764
316.954
316.141
315.326
314.508
313.686
312.862
312.032
311.192
322.597
321.79
320.983
320.175
319.367
318.557
317.746
316.932
316.117
315.299
314.479
313.656
312.829
311.997
311.162
322.595
321.786
320.976
320.166
319.355
318.542
317.728
316.913
316.095
315.275
314.453
313.628
312.799
311.966
311.122
322.594
321.782
320.97
320.157
319.343
318.528
317.712
316.894
316.075
315.253
314.429
313.603
312.774
311.941
311.105
322.593
321.779
320.964
320.149
319.333
318.516
317.697
316.878
316.056
315.233
314.408
313.58
312.75
311.919
311.09
322.592
321.775
320.958
320.141
319.323
318.504
317.684
316.862
316.039
315.214
314.387
313.559
312.729
311.896
311.062
322.591
321.772
320.953
320.134
319.314
318.493
317.671
316.848
316.023
315.197
314.369
313.539
312.708
311.876
311.045
322.59
321.769
320.949
320.128
319.306
318.483
317.66
316.835
316.009
315.181
314.352
313.521
312.689
311.855
311.018
322.589
321.767
320.945
320.122
319.298
318.474
317.649
316.823
315.995
315.167
314.336
313.504
312.671
311.836
311.001
322.588
321.765
320.941
320.116
319.291
318.466
317.639
316.812
315.983
315.153
314.322
313.489
312.654
311.817
310.975
322.587
321.762
320.937
320.111
319.285
318.458
317.631
316.802
315.972
315.141
314.309
313.475
312.64
311.802
310.962
322.587
321.76
320.934
320.107
319.279
318.451
317.623
316.793
315.962
315.13
314.297
313.463
312.627
311.788
310.946
322.586
321.759
320.931
320.103
319.274
318.445
317.615
316.785
315.953
315.121
314.287
313.452
312.616
311.778
310.939
322.586
321.757
320.928
320.099
319.269
318.439
317.609
316.777
315.945
315.112
314.278
313.442
312.606
311.769
310.933
322.585
321.756
320.926
320.096
319.265
318.434
317.603
316.771
315.938
315.104
314.269
313.434
312.598
311.76
310.922
322.585
321.754
320.924
320.093
319.261
318.43
317.597
316.765
315.931
315.097
314.262
313.426
312.59
311.753
310.916
322.584
321.753
320.922
320.09
319.258
318.425
317.593
316.759
315.925
315.09
314.255
313.419
312.582
311.745
310.906
322.584
321.752
320.92
320.087
319.255
318.422
317.588
316.754
315.92
315.085
314.249
313.413
312.576
311.738
310.901
322.584
321.751
320.918
320.085
319.252
318.419
317.585
316.75
315.915
315.08
314.244
313.407
312.57
311.732
310.892
322.583
321.75
320.917
320.083
319.25
318.416
317.581
316.746
315.911
315.075
314.239
313.402
312.565
311.727
310.888
322.583
321.749
320.916
320.082
319.248
318.413
317.578
316.743
315.908
315.072
314.235
313.398
312.561
311.722
310.883
322.583
321.749
320.915
320.08
319.246
318.411
317.576
316.741
315.905
315.068
314.232
313.395
312.557
311.719
310.88
322.583
321.748
320.914
320.079
319.244
318.409
317.574
316.738
315.902
315.066
314.229
313.392
312.554
311.716
310.879
322.583
321.748
320.913
320.078
319.243
318.408
317.572
316.736
315.9
315.064
314.227
313.389
312.552
311.714
310.876
322.583
321.748
320.913
320.077
319.242
318.407
317.571
316.735
315.898
315.062
314.225
313.387
312.55
311.712
310.874
322.582
321.747
320.912
320.077
319.241
318.406
317.57
316.734
315.897
315.06
314.223
313.386
312.548
311.711
310.873
322.582
321.747
320.912
320.076
319.241
318.405
317.569
316.733
315.896
315.059
314.222
313.385
312.547
311.71
310.872
322.582
321.747
320.912
320.076
319.241
318.405
317.569
316.732
315.896
315.059
314.222
313.384
312.547
311.709
310.871
322.582
321.747
320.912
320.076
319.241
318.405
317.569
316.732
315.896
315.059
314.222
313.384
312.547
311.709
310.87
322.582
321.747
320.912
320.076
319.241
318.405
317.569
316.733
315.896
315.059
314.222
313.384
312.547
311.709
310.871
322.582
321.747
320.912
320.077
319.241
318.405
317.569
316.733
315.897
315.06
314.223
313.385
312.547
311.709
310.871
322.582
321.747
320.912
320.077
319.242
318.406
317.57
316.734
315.898
315.061
314.224
313.386
312.549
311.71
310.872
322.583
321.748
320.913
320.078
319.243
318.407
317.572
316.736
315.899
315.062
314.225
313.388
312.55
311.712
310.873
322.583
321.748
320.914
320.079
319.244
318.409
317.573
316.737
315.901
315.065
314.228
313.39
312.552
311.714
310.875
322.583
321.749
320.914
320.08
319.245
318.41
317.575
316.739
315.903
315.067
314.23
313.393
312.555
311.717
310.879
322.583
321.749
320.915
320.081
319.247
318.412
317.577
316.742
315.906
315.07
314.233
313.396
312.559
311.721
310.882
322.583
321.75
320.917
320.083
319.249
318.415
317.58
316.745
315.91
315.074
314.237
313.4
312.563
311.725
310.887
322.584
321.751
320.918
320.085
319.251
318.418
317.583
316.749
315.914
315.078
314.242
313.405
312.567
311.729
310.891
322.584
321.752
320.919
320.087
319.254
318.421
317.587
316.753
315.918
315.083
314.247
313.41
312.572
311.735
310.897
322.584
321.753
320.921
320.089
319.257
318.424
317.591
316.757
315.923
315.088
314.252
313.416
312.578
311.74
310.901
322.585
321.754
320.923
320.092
319.26
318.428
317.596
316.763
315.929
315.094
314.259
313.422
312.585
311.746
310.905
322.585
321.755
320.925
320.095
319.264
318.433
317.601
316.769
315.935
315.101
314.266
313.43
312.592
311.754
310.914
322.586
321.757
320.928
320.098
319.268
318.438
317.607
316.775
315.943
315.109
314.275
313.439
312.601
311.762
310.921
322.586
321.758
320.93
320.102
319.273
318.444
317.614
316.783
315.951
315.118
314.284
313.449
312.612
311.774
310.934
322.587
321.76
320.933
320.106
319.278
318.45
317.621
316.791
315.96
315.128
314.295
313.46
312.624
311.786
310.945
322.587
321.762
320.937
320.111
319.284
318.457
317.629
316.8
315.97
315.139
314.306
313.472
312.637
311.801
310.966
322.588
321.764
320.94
320.116
319.291
318.465
317.638
316.81
315.981
315.151
314.319
313.486
312.651
311.815
310.978
322.589
321.767
320.944
320.121
319.298
318.473
317.648
316.821
315.993
315.164
314.333
313.501
312.667
311.831
310.998
322.59
321.769
320.948
320.127
319.305
318.482
317.659
316.833
316.007
315.179
314.349
313.517
312.683
311.847
311.008
322.591
321.772
320.953
320.134
319.314
318.492
317.67
316.847
316.022
315.195
314.366
313.535
312.701
311.864
311.02
322.592
321.775
320.958
320.141
319.323
318.503
317.683
316.861
316.038
315.213
314.385
313.555
312.722
311.885
311.046
322.593
321.778
320.964
320.148
319.332
318.515
317.697
316.877
316.055
315.232
314.406
313.578
312.746
311.91
311.066
322.594
321.782
320.97
320.157
319.343
318.528
317.712
316.894
316.075
315.253
314.429
313.603
312.773
311.94
311.104
322.595
321.786
320.976
320.166
319.355
318.542
317.728
316.913
316.096
315.276
314.454
313.63
312.803
311.972
311.132
322.597
321.79
320.983
320.176
319.367
318.557
317.746
316.933
316.118
315.301
314.482
313.66
312.835
312.01
311.187
322.598
321.795
320.991
320.186
319.38
318.573
317.765
316.955
316.142
315.328
314.511
313.691
312.869
312.046
311.219
322.6
321.799
320.999
320.197
319.395
318.591
317.785
316.978
316.168
315.356
314.542
313.725
312.905
312.084
311.268
322.602
321.805
321.007
320.209
319.41
318.609
317.807
317.003
316.196
315.387
314.575
313.76
312.941
312.119
311.293
322.603
321.81
321.016
320.222
319.426
318.629
317.83
317.029
316.226
315.42
314.611
313.798
312.981
312.157
311.32
322.605
321.816
321.026
320.235
319.443
318.65
317.855
317.058
316.258
315.456
314.65
313.84
313.025
312.204
311.379
322.607
321.822
321.036
320.25
319.462
318.673
317.882
317.088
316.292
315.494
314.691
313.885
313.074
312.255
311.422
322.61
321.829
321.047
320.265
319.482
318.697
317.91
317.121
316.329
315.534
314.736
313.934
313.128
312.316
311.503
322.612
321.836
321.059
320.281
319.502
318.722
317.94
317.155
316.367
315.577
314.783
313.986
313.185
312.379
311.56
322.614
321.843
321.071
320.298
319.524
318.749
317.971
317.191
316.408
315.623
314.833
314.041
313.247
312.452
311.667
322.617
321.851
321.084
320.316
319.548
318.777
318.005
317.23
316.452
315.671
314.886
314.098
313.308
312.518
311.725
322.62
321.859
321.098
320.335
319.572
318.807
318.04
317.27
316.497
315.721
314.941
314.157
313.37
312.585
311.812
322.623
321.867
321.112
320.355
319.598
318.838
318.077
317.313
316.546
315.775
314.999
314.218
313.432
312.643
311.852
322.625
321.876
321.127
320.376
319.625
318.871
318.116
317.358
316.597
315.832
315.061
314.283
313.497
312.702
311.891
322.629
321.885
321.142
320.398
319.653
318.906
318.157
317.406
316.652
315.892
315.127
314.353
313.569
312.773
311.969
322.632
321.895
321.158
320.42
319.682
318.942
318.2
317.457
316.709
315.958
315.199
314.432
313.65
312.849
312.02
322.635
321.905
321.174
320.443
319.712
318.979
318.245
317.509
316.77
316.027
315.278
314.52
313.745
312.944
312.098
322.638
321.915
321.191
320.467
319.743
319.018
318.292
317.564
316.835
316.102
315.364
314.619
313.859
313.071
312.21
293.743
292.885
292.101
291.345
290.604
289.87
289.141
288.415
287.691
286.968
286.246
285.524
284.803
284.082
283.361
293.849
293.005
292.209
291.44
290.687
289.942
289.204
288.469
287.736
287.005
286.276
285.547
284.819
284.091
283.364
293.912
293.091
292.298
291.524
290.763
290.01
289.263
288.52
287.78
287.042
286.306
285.57
284.835
284.101
283.367
293.948
293.157
292.374
291.599
290.833
290.074
289.32
288.57
287.823
287.078
286.334
285.592
284.851
284.11
283.37
293.986
293.218
292.442
291.668
290.899
290.134
289.374
288.617
287.863
287.112
286.362
285.614
284.866
284.12
283.373
294.062
293.286
292.509
291.733
290.96
290.191
289.425
288.662
287.902
287.145
286.389
285.634
284.881
284.128
283.376
294.117
293.352
292.575
291.797
291.02
290.245
289.474
288.706
287.94
287.176
286.415
285.654
284.895
284.137
283.379
294.215
293.427
292.643
291.859
291.077
290.297
289.521
288.747
287.976
287.206
286.439
285.674
284.909
284.145
283.382
294.28
293.499
292.709
291.919
291.131
290.347
289.565
288.786
288.01
287.235
286.463
285.692
284.922
284.153
283.384
294.396
293.578
292.775
291.978
291.184
290.394
289.607
288.823
288.042
287.263
286.485
285.709
284.934
284.16
283.387
294.458
293.646
292.837
292.033
291.234
290.439
289.648
288.859
288.073
287.289
286.507
285.726
284.946
284.167
283.389
294.545
293.711
292.894
292.085
291.281
290.482
289.686
288.892
288.102
287.313
286.527
285.742
284.957
284.174
283.391
294.591
293.766
292.946
292.133
291.325
290.521
289.721
288.924
288.129
287.337
286.546
285.756
284.968
284.181
283.393
294.653
293.816
292.993
292.177
291.366
290.559
289.755
288.954
288.155
287.359
286.564
285.77
284.978
284.187
283.395
294.682
293.856
293.035
292.217
291.404
290.593
289.786
288.982
288.18
287.379
286.581
285.784
284.988
284.192
283.397
294.708
293.893
293.074
292.255
291.439
290.626
289.816
289.008
288.202
287.399
286.597
285.796
284.997
284.198
283.399
294.76
293.934
293.111
292.29
291.472
290.656
289.843
289.032
288.224
287.417
286.612
285.808
285.005
284.203
283.401
294.794
293.972
293.147
292.323
291.503
290.684
289.868
289.055
288.243
287.434
286.626
285.819
285.013
284.207
283.402
294.852
294.012
293.181
292.355
291.531
290.71
289.892
289.076
288.262
287.449
286.639
285.829
285.02
284.212
283.404
294.881
294.046
293.213
292.384
291.558
290.735
289.914
289.096
288.279
287.464
286.651
285.838
285.027
284.216
283.405
294.922
294.077
293.241
292.41
291.582
290.757
289.934
289.114
288.295
287.478
286.662
285.847
285.033
284.22
283.406
294.943
294.103
293.266
292.434
291.604
290.777
289.953
289.13
288.31
287.49
286.672
285.855
285.039
284.223
283.408
294.97
294.126
293.289
292.455
291.624
290.796
289.97
289.146
288.323
287.502
286.682
285.863
285.044
284.226
283.409
294.982
294.144
293.308
292.474
291.642
290.813
289.986
289.16
288.335
287.512
286.69
285.869
285.049
284.229
283.41
294.993
294.16
293.325
292.491
291.659
290.828
290
289.172
288.347
287.522
286.698
285.876
285.054
284.232
283.411
295.014
294.177
293.341
292.507
291.674
290.842
290.013
289.184
288.357
287.531
286.706
285.881
285.058
284.234
283.411
295.027
294.192
293.356
292.521
291.687
290.855
290.024
289.195
288.366
287.539
286.713
285.887
285.062
284.237
283.412
295.049
294.208
293.37
292.534
291.7
290.867
290.035
289.204
288.375
287.546
286.719
285.892
285.065
284.239
283.413
295.06
294.221
293.383
292.546
291.711
290.877
290.045
289.213
288.383
287.553
286.724
285.896
285.068
284.241
283.414
295.075
294.233
293.394
292.557
291.721
290.887
290.053
289.221
288.39
287.559
286.729
285.9
285.071
284.243
283.414
295.082
294.242
293.403
292.566
291.73
290.895
290.061
289.228
288.396
287.565
286.734
285.903
285.074
284.244
283.415
295.092
294.251
293.412
292.574
291.738
290.902
290.068
289.234
288.402
287.569
286.738
285.907
285.076
284.245
283.415
295.096
294.257
293.419
292.581
291.745
290.909
290.074
289.24
288.407
287.574
286.741
285.91
285.078
284.247
283.416
295.1
294.262
293.425
292.587
291.751
290.915
290.08
289.245
288.411
287.578
286.745
285.912
285.08
284.248
283.416
295.106
294.268
293.43
292.593
291.756
290.92
290.084
289.25
288.415
287.581
286.748
285.914
285.082
284.249
283.416
295.11
294.273
293.435
292.598
291.761
290.925
290.089
289.253
288.419
287.584
286.75
285.916
285.083
284.25
283.417
295.117
294.277