/*--------------------------------*- C++ -*----------------------------------*\
| =========                 |                                                 |
| \\      /  F ield         | OpenFOAM: The Open Source CFD Toolbox           |
|  \\    /   O peration     | Version:  5.x                                   |
|   \\  /    A nd           | Web:      www.OpenFOAM.org                      |
|    \\/     M anipulation  |                                                 |
\*---------------------------------------------------------------------------*/
FoamFile
{
    version     2.0;
    format      ascii;
    class       volScalarField;
    location    "3.8";
    object      gradTx;
}
// * * * * * * * * * * * * * * * * * * * * * * * * * * * * * * * * * * * * * //

dimensions      [0 -1 0 1 0 0 0];

internalField   nonuniform List<scalar> 
6300
(
-48.7752
-48.7551
-48.7148
-48.6541
-48.5729
-48.4711
-48.3486
-48.2056
-48.0424
-47.8597
-47.6585
-47.4404
-47.2068
-46.9594
-46.6999
-48.7955
-48.7755
-48.7353
-48.6748
-48.5938
-48.492
-48.3694
-48.226
-48.0621
-47.8783
-47.6758
-47.456
-47.2207
-46.9719
-46.7113
-48.8361
-48.8162
-48.7763
-48.7162
-48.6355
-48.5339
-48.4112
-48.2671
-48.1018
-47.916
-47.7106
-47.4874
-47.2485
-46.9964
-46.7336
-48.8967
-48.8772
-48.8378
-48.7784
-48.6984
-48.5973
-48.4744
-48.3295
-48.1623
-47.9733
-47.7635
-47.5347
-47.2896
-47.0318
-46.7647
-48.9771
-48.958
-48.9196
-48.8614
-48.7826
-48.6825
-48.56
-48.4144
-48.245
-48.0518
-47.8356
-47.5985
-47.3439
-47.0765
-46.8021
-49.0768
-49.0584
-49.0214
-48.9651
-48.8884
-48.7902
-48.6689
-48.5232
-48.3516
-48.1534
-47.9289
-47.6801
-47.4111
-47.1287
-46.8414
-49.1949
-49.1777
-49.1427
-49.0893
-49.016
-48.9211
-48.8026
-48.658
-48.485
-48.2815
-48.0467
-47.782
-47.4921
-47.1859
-46.8768
-49.3305
-49.3148
-49.2828
-49.2335
-49.1653
-49.0759
-48.9625
-48.8216
-48.6491
-48.4412
-48.1947
-47.9094
-47.5894
-47.2464
-46.9001
-49.4821
-49.4684
-49.4403
-49.3968
-49.3359
-49.2549
-49.1502
-49.0169
-48.8489
-48.6395
-48.3819
-48.0715
-47.7101
-47.3105
-46.9014
-49.6476
-49.6364
-49.6135
-49.5776
-49.5268
-49.4579
-49.3667
-49.2469
-49.0903
-48.8862
-48.6219
-48.285
-47.8691
-47.3841
-46.8693
-49.8244
-49.8164
-49.7999
-49.7737
-49.7359
-49.6835
-49.6119
-49.514
-49.3795
-49.1933
-48.9347
-48.5776
-48.0974
-47.4878
-46.7945
-50.0094
-50.0051
-49.996
-49.9815
-49.9598
-49.9285
-49.8835
-49.8179
-49.7206
-49.5731
-49.3459
-48.9936
-48.4552
-47.6754
-46.6771
-50.1988
-50.1986
-50.198
-50.1965
-50.1935
-50.1875
-50.1758
-50.1537
-50.1119
-50.0328
-49.8825
-49.5957
-49.0547
-48.0815
-46.5486
-50.3887
-50.3928
-50.4009
-50.4133
-50.4304
-50.4522
-50.4788
-50.5092
-50.5406
-50.564
-50.5557
-50.4523
-50.0866
-49.0476
-46.5611
-50.5748
-50.5829
-50.5996
-50.6257
-50.6626
-50.7123
-50.778
-50.8641
-50.9773
-51.1269
-51.3242
-51.5712
-51.7921
-51.4615
-47.6089
-46.4525
-46.2191
-45.9778
-45.7275
-45.4669
-45.1943
-44.9079
-44.6059
-44.2869
-43.9499
-43.5948
-43.2219
-42.8324
-42.428
-42.0107
-41.5831
-41.1477
-40.7075
-40.2651
-39.8236
-39.3857
-38.9543
-38.532
-38.1214
-37.7246
-37.3434
-36.9792
-36.6331
-36.3055
-35.9968
-35.7067
-35.4348
-35.1801
-34.9416
-34.718
-34.508
-34.3103
-34.1234
-33.9462
-33.7772
-33.6155
-33.4599
-33.3094
-33.1635
-33.0217
-32.884
-32.7508
-32.6227
-32.5007
-32.3862
-32.2803
-32.1844
-32.0997
-32.0272
-31.9676
-31.9214
-31.8889
-31.8701
-31.8647
-31.8723
-31.8923
-31.9241
-31.967
-32.0205
-32.0841
-32.1572
-32.2397
-32.331
-32.4311
-32.5397
-32.6565
-32.7815
-32.9147
-33.0559
-33.2054
-33.3632
-33.5293
-33.7037
-33.8865
-34.0774
-34.2764
-34.4832
-34.6975
-34.919
-35.147
-35.3809
-35.6194
-35.8612
-36.1046
-36.3477
-46.4637
-46.2309
-45.9909
-45.7426
-45.4844
-45.2145
-44.9306
-44.6307
-44.313
-43.9764
-43.6206
-43.2462
-42.8542
-42.4467
-42.0259
-41.5945
-41.1552
-40.7108
-40.2643
-39.8186
-39.3766
-38.9414
-38.5156
-38.1019
-37.7025
-37.3192
-36.9536
-36.6065
-36.2787
-35.9703
-35.681
-35.4102
-35.1571
-34.9203
-34.6987
-34.4907
-34.2948
-34.1099
-33.9344
-33.7671
-33.6069
-33.4526
-33.3031
-33.1578
-33.016
-32.8778
-32.7435
-32.6139
-32.4902
-32.3738
-32.266
-32.1684
-32.0823
-32.0086
-31.9482
-31.9017
-31.8692
-31.8507
-31.8459
-31.8543
-31.8752
-31.9079
-31.9517
-32.0059
-32.0701
-32.1437
-32.2266
-32.3183
-32.4187
-32.5275
-32.6445
-32.7696
-32.9027
-33.0438
-33.1932
-33.3509
-33.5169
-33.6914
-33.8743
-34.0655
-34.2648
-34.4719
-34.6868
-34.9091
-35.1383
-35.3737
-35.6142
-35.8584
-36.1046
-36.3507
-46.4853
-46.2536
-46.0162
-45.7721
-45.5192
-45.2551
-44.9768
-44.6814
-44.3666
-44.0309
-43.6738
-43.2959
-42.8988
-42.4849
-42.0568
-41.6176
-41.1702
-40.7175
-40.2626
-39.8085
-39.3583
-38.9152
-38.4822
-38.0621
-37.6574
-37.27
-36.9014
-36.5527
-36.2244
-35.9165
-35.6288
-35.3606
-35.1107
-34.8777
-34.66
-34.456
-34.2641
-34.0829
-33.911
-33.7472
-33.5901
-33.4385
-33.2912
-33.147
-33.0054
-32.8661
-32.7296
-32.5969
-32.4694
-32.3489
-32.2372
-32.136
-32.0469
-31.9709
-31.9091
-31.8618
-31.8293
-31.8116
-31.8081
-31.8183
-31.8411
-31.8757
-31.9212
-31.9769
-32.0422
-32.1168
-32.2005
-32.2929
-32.394
-32.5033
-32.6206
-32.7458
-32.8787
-33.0196
-33.1686
-33.3261
-33.4921
-33.6667
-33.8499
-34.0415
-34.2413
-34.4492
-34.6651
-34.8888
-35.1202
-35.3587
-35.6031
-35.8523
-36.1041
-36.3564
-46.5149
-46.2846
-46.0516
-45.8144
-45.5706
-45.3165
-45.0478
-44.7604
-44.4507
-44.1164
-43.7571
-43.3735
-42.968
-42.5437
-42.1042
-41.6529
-41.1931
-40.7279
-40.2602
-39.7932
-39.3302
-38.8748
-38.4305
-38.0005
-37.5877
-37.194
-36.8211
-36.4699
-36.1408
-35.834
-35.549
-35.2849
-35.0403
-34.8134
-34.602
-34.4042
-34.2183
-34.0428
-33.8763
-33.7178
-33.5657
-33.4186
-33.2748
-33.1329
-32.9916
-32.8506
-32.7105
-32.5725
-32.4387
-32.3115
-32.1933
-32.0864
-31.9926
-31.9131
-31.8489
-31.8005
-31.7683
-31.7519
-31.7507
-31.7639
-31.79
-31.8278
-31.876
-31.9338
-32.0008
-32.0767
-32.1614
-32.255
-32.3571
-32.4673
-32.5852
-32.7105
-32.8431
-32.9833
-33.1317
-33.2886
-33.4544
-33.6293
-33.8131
-34.0053
-34.2058
-34.4145
-34.6315
-34.8571
-35.0915
-35.3344
-35.585
-35.8418
-36.1025
-36.3645
-46.5489
-46.3201
-46.0931
-45.8666
-45.637
-45.3991
-45.1461
-44.8717
-44.5703
-44.2386
-43.8756
-43.483
-43.0645
-42.6248
-42.1688
-41.7007
-41.2242
-40.7421
-40.2571
-39.7723
-39.2914
-38.8187
-38.3584
-37.9147
-37.4906
-37.0885
-36.7099
-36.3554
-36.0255
-35.7204
-35.4394
-35.1816
-34.9449
-34.7268
-34.5246
-34.3357
-34.1579
-33.9898
-33.8306
-33.6792
-33.5344
-33.3941
-33.2561
-33.1179
-32.9775
-32.8342
-32.6884
-32.5422
-32.3986
-32.2612
-32.1334
-32.0181
-31.9176
-31.8332
-31.7659
-31.7162
-31.6843
-31.6701
-31.6727
-31.6907
-31.722
-31.7646
-31.8168
-31.8775
-31.9463
-32.0235
-32.1095
-32.2046
-32.3083
-32.4201
-32.539
-32.6644
-32.7962
-32.9351
-33.082
-33.2378
-33.4034
-33.5788
-33.7635
-33.9568
-34.1581
-34.3673
-34.5851
-34.8123
-35.0501
-35.2986
-35.5575
-35.825
-36.0985
-36.3747
-46.5813
-46.3531
-46.1342
-45.9235
-45.716
-45.5035
-45.2757
-45.0222
-44.734
-44.406
-44.037
-43.6302
-43.1919
-42.7297
-42.251
-41.7611
-41.2638
-40.7608
-40.2541
-39.7462
-39.2414
-38.745
-38.263
-37.8008
-37.3623
-36.9497
-36.5641
-36.2058
-35.8751
-35.5722
-35.2969
-35.048
-34.8229
-34.6178
-34.4285
-34.2513
-34.0837
-33.9245
-33.7739
-33.6315
-33.4966
-33.3667
-33.2379
-33.1062
-32.968
-32.8214
-32.6672
-32.5084
-32.3498
-32.1971
-32.0554
-31.9287
-31.8195
-31.7289
-31.6576
-31.6062
-31.575
-31.5642
-31.5726
-31.5982
-31.6377
-31.6876
-31.7454
-31.8093
-31.8797
-31.9576
-32.0445
-32.1413
-32.2477
-32.3622
-32.483
-32.6087
-32.739
-32.875
-33.0189
-33.1728
-33.338
-33.5146
-33.7013
-33.8964
-34.0985
-34.3075
-34.5245
-34.752
-34.9925
-35.2475
-35.517
-35.7991
-36.0903
-36.3861
-46.6031
-46.3728
-46.164
-45.9761
-45.8024
-45.6302
-45.4427
-45.2227
-44.9556
-44.6327
-44.2531
-43.8231
-43.3539
-42.8589
-42.3494
-41.8328
-41.3116
-40.7853
-40.253
-39.7161
-39.1794
-38.6509
-38.1395
-37.6532
-37.1969
-36.7725
-36.3794
-36.0169
-35.6849
-35.3845
-35.1167
-34.8806
-34.6725
-34.4864
-34.3153
-34.1534
-33.9975
-33.8474
-33.7053
-33.5735
-33.452
-33.3377
-33.2243
-33.1042
-32.9705
-32.8198
-32.6528
-32.4744
-32.2928
-32.1173
-31.956
-31.8143
-31.6945
-31.5967
-31.5208
-31.4669
-31.4365
-31.4304
-31.4478
-31.4856
-31.5381
-31.5994
-31.6647
-31.7319
-31.8019
-31.8784
-31.965
-32.0641
-32.1752
-32.2951
-32.4198
-32.546
-32.6731
-32.8034
-32.9411
-33.091
-33.2558
-33.4354
-33.6266
-33.8255
-34.0287
-34.2355
-34.4485
-34.6727
-34.9135
-35.175
-35.4578
-35.7594
-36.075
-36.3978
-46.6004
-46.3617
-46.1639
-46.0086
-45.8869
-45.779
-45.657
-45.4915
-45.2577
-44.9414
-44.5422
-44.0725
-43.5537
-43.0092
-42.4585
-41.9114
-41.3673
-40.8189
-40.2589
-39.6859
-39.1062
-38.5325
-37.9803
-37.4626
-36.986
-36.5504
-36.1512
-35.7843
-35.4494
-35.1502
-34.8912
-34.6731
-34.4908
-34.3337
-34.1892
-34.0472
-33.9031
-33.7591
-33.6224
-33.5007
-33.3973
-33.3077
-33.2206
-33.1217
-32.998
-32.8421
-32.6548
-32.445
-32.2271
-32.0172
-31.8285
-31.6685
-31.5378
-31.4333
-31.352
-31.2941
-31.2629
-31.2626
-31.2938
-31.3515
-31.4258
-31.5054
-31.5813
-31.65
-31.7149
-31.7843
-31.8674
-31.9695
-32.0896
-32.2208
-32.354
-32.4819
-32.6025
-32.7206
-32.8455
-32.9873
-33.1521
-33.3389
-33.5407
-33.748
-33.9532
-34.1542
-34.3559
-34.5688
-34.8044
-35.0712
-35.371
-35.6994
-36.0485
-36.4088
-46.5528
-46.2921
-46.1029
-45.9929
-45.952
-45.9483
-45.9344
-45.8588
-45.6788
-45.3699
-44.933
-44.3932
-43.7905
-43.1689
-42.5627
-41.986
-41.4294
-40.8693
-40.284
-39.6657
-39.0244
-38.3836
-37.7719
-37.2129
-36.7165
-36.2762
-35.8767
-35.5059
-35.163
-34.8586
-34.6068
-34.4145
-34.2732
-34.163
-34.0599
-33.9444
-33.8089
-33.6605
-33.518
-33.402
-33.323
-33.2743
-33.2342
-33.1752
-33.0719
-32.9097
-32.6894
-32.4274
-32.1502
-31.8866
-31.6599
-31.4804
-31.3435
-31.2367
-31.1497
-31.0825
-31.0449
-31.0495
-31.1017
-31.1935
-31.3059
-31.4166
-31.508
-31.5736
-31.6213
-31.6703
-31.742
-31.8489
-31.9879
-32.1435
-32.2954
-32.4278
-32.5355
-32.6277
-32.7251
-32.8503
-33.0164
-33.2205
-33.4464
-33.673
-33.8833
-34.0715
-34.247
-34.4315
-34.6501
-34.9196
-35.2424
-35.609
-36.0055
-36.4179
-46.4301
-46.1198
-45.9282
-45.8776
-45.9636
-46.1326
-46.3006
-46.377
-46.2857
-45.9829
-45.4725
-44.8044
-44.055
-43.3066
-42.6244
-42.0322
-41.4968
-40.9564
-40.357
-39.6788
-38.9421
-38.1932
-37.488
-36.8732
-36.3665
-35.9434
-35.5613
-35.1878
-34.8213
-34.4912
-34.2374
-34.0824
-34.0111
-33.9825
-33.9485
-33.8707
-33.7334
-33.5535
-33.3757
-33.2501
-33.2055
-33.2284
-33.2755
-33.2925
-33.2309
-33.0611
-32.7843
-32.432
-32.0536
-31.703
-31.4233
-31.2312
-31.1061
-31.0113
-30.919
-30.8284
-30.7662
-30.7677
-30.8526
-31.0056
-31.1883
-31.3556
-31.4718
-31.5229
-31.5257
-31.5236
-31.5658
-31.6818
-31.8621
-32.071
-32.265
-32.4091
-32.4903
-32.527
-32.5646
-32.6539
-32.8257
-33.0703
-33.3507
-33.6213
-33.845
-34.0068
-34.1246
-34.2449
-34.4219
-34.6911
-35.0503
-35.4752
-35.9392
-36.4236
-46.1882
-45.777
-45.5503
-45.5661
-45.8559
-46.3186
-46.7989
-47.1366
-47.1975
-46.8952
-46.2393
-45.3329
-44.3182
-43.3492
-42.5569
-41.9969
-41.5714
-41.1289
-40.5435
-39.7765
-38.8777
-37.94
-37.074
-36.3783
-35.8961
-35.5519
-35.2339
-34.8597
-34.4273
-34.0145
-33.7257
-33.6301
-33.6879
-33.8099
-33.9004
-33.8828
-33.7194
-33.4439
-33.1584
-32.9818
-32.991
-33.1478
-33.3601
-33.5233
-33.5459
-33.3666
-32.9878
-32.4743
-31.9173
-31.4172
-31.0609
-30.8854
-30.8251
-30.7824
-30.6856
-30.5336
-30.3959
-30.3659
-30.5051
-30.7751
-31.0926
-31.3679
-31.5293
-31.5415
-31.437
-31.3129
-31.2831
-31.4218
-31.6951
-32.02
-32.306
-32.4807
-32.509
-32.425
-32.3291
-32.3386
-32.5299
-32.8684
-33.2689
-33.6369
-33.8954
-34.0051
-33.9982
-33.9763
-34.0607
-34.3327
-34.7633
-35.2848
-35.8431
-36.4221
-45.7576
-45.1686
-44.8236
-44.8602
-45.4993
-46.4795
-47.5026
-48.2953
-48.6325
-48.3171
-47.3669
-46.0178
-44.5159
-43.1378
-42.1551
-41.7683
-41.6707
-41.5074
-40.9919
-40.0641
-38.8699
-37.5838
-36.4151
-35.5764
-35.2273
-35.1231
-34.9877
-34.6156
-34.0053
-33.3597
-32.936
-32.9574
-33.2723
-33.6831
-34.0082
-34.1053
-33.8673
-33.349
-32.7845
-32.4463
-32.5641
-32.9875
-33.5155
-33.9569
-34.1516
-33.9597
-33.3857
-32.5793
-31.699
-30.9247
-30.438
-30.3739
-30.5186
-30.6317
-30.5317
-30.218
-29.8703
-29.7204
-29.9693
-30.476
-31.0578
-31.5443
-31.8015
-31.7281
-31.3761
-30.9664
-30.7576
-30.9679
-31.4534
-32.0248
-32.5071
-32.7629
-32.6891
-32.3396
-31.9418
-31.7611
-32.0217
-32.577
-33.2335
-33.8096
-34.1599
-34.1711
-33.8927
-33.5545
-33.4289
-33.7454
-34.3449
-35.0414
-35.7166
-36.3941
-44.9914
-44.2092
-43.548
-43.2873
-44.652
-46.5794
-48.5381
-50.1104
-51.0078
-50.6533
-49.0694
-46.9234
-44.5356
-42.3574
-40.8956
-41.1236
-41.8653
-42.3935
-42.0345
-40.7357
-38.9951
-37.0589
-35.2817
-34.0697
-34.2065
-34.7394
-35.0829
-34.7148
-33.6348
-32.3859
-31.5057
-31.8626
-32.7192
-33.6799
-34.4449
-34.8106
-34.4192
-33.3209
-32.0852
-31.2544
-31.6978
-32.6768
-33.796
-34.746
-35.3146
-35.1033
-34.1183
-32.7912
-31.3284
-30.0181
-29.2067
-29.5619
-30.2577
-30.788
-30.6858
-29.9515
-29.0601
-28.5006
-29.0623
-30.0689
-31.1601
-32.0506
-32.5495
-32.3159
-31.398
-30.3305
-29.6284
-30.1174
-31.0875
-32.1578
-33.0341
-33.5192
-33.2657
-32.3232
-31.2414
-30.5479
-31.0884
-32.1394
-33.3133
-34.3068
-34.9124
-34.7534
-33.8727
-32.826
-32.1598
-32.75
-33.7862
-34.8283
-35.5865
-36.239
-43.3436
-43.0756
-41.6956
-39.3736
-42.9944
-46.6343
-50.1305
-52.8975
-55.1863
-54.7602
-51.5813
-48.1776
-44.2536
-40.5458
-37.203
-39.7393
-42.3677
-44.5573
-44.4308
-42.0439
-39.402
-36.3052
-33.3344
-30.6212
-32.6153
-34.6288
-36.2032
-35.8397
-33.5075
-30.8813
-28.2941
-30.0483
-32.0165
-33.9588
-35.4567
-36.6067
-35.9891
-33.4912
-30.8027
-28.228
-30.0606
-32.1643
-34.3203
-36.0848
-37.6007
-37.3612
-35.3438
-33.1987
-30.7382
-28.3931
-26.2959
-28.2594
-30.2351
-31.8552
-31.7499
-29.9112
-27.7721
-25.666
-27.5148
-29.5396
-31.5516
-33.1207
-34.3522
-33.889
-31.6353
-29.1682
-26.784
-28.574
-30.5772
-32.5697
-34.1242
-35.3386
-34.8344
-32.5073
-29.9813
-27.5576
-29.4198
-31.5246
-33.6525
-35.3622
-36.7655
-36.3746
-34.0914
-31.5493
-29.0814
-31.112
-33.2186
-35.0234
-35.608
-35.4446
-37.8559
-43.5434
-41.2002
-26.9027
-41.3097
-46.8962
-52.7735
-56.3734
-63.2745
-62.8315
-54.4176
-50.1813
-43.6605
-38.2091
-25.045
-38.2228
-43.5022
-50.0569
-50.0824
-43.7196
-40.4646
-35.3706
-31.0166
-20.3946
-30.9967
-35.151
-40.1143
-39.7997
-33.8043
-29.3207
-18.8315
-27.9262
-31.3517
-34.8777
-36.9702
-40.9484
-40.2672
-33.9363
-29.3568
-18.8554
-28.0332
-31.577
-35.4087
-37.7818
-42.4149
-42.1798
-36.7532
-34.0606
-29.9822
-26.4114
-17.5376
-26.9394
-30.7247
-35.4072
-35.31
-30.3038
-26.4364
-17.1365
-25.7139
-29.0287
-32.5806
-34.6769
-38.595
-38.0404
-32.1795
-27.8861
-17.9288
-26.723
-30.082
-33.6123
-35.7034
-39.6326
-39.0275
-32.9776
-28.5736
-18.3949
-27.4016
-30.8758
-34.5936
-36.8585
-41.2016
-40.7201
-34.6823
-30.1654
-19.5245
-29.3641
-33.0849
-36.9753
-36.7058
-31.3092
-36.6121
-36.8942
-37.1659
-37.4238
-37.6652
-37.8877
-38.0896
-38.2698
-38.4275
-38.5625
-38.6746
-38.764
-38.8308
-38.8752
-38.8974
-36.6185
-36.9042
-37.1792
-37.44
-37.6836
-37.9078
-38.1108
-38.2917
-38.4498
-38.5848
-38.6969
-38.7861
-38.8527
-38.897
-38.9191
-36.6312
-36.9243
-37.2061
-37.4727
-37.7209
-37.9485
-38.1538
-38.336
-38.4946
-38.6297
-38.7415
-38.8303
-38.8965
-38.9404
-38.9623
-36.6505
-36.9554
-37.2478
-37.5233
-37.7784
-38.0109
-38.2194
-38.4033
-38.5625
-38.6974
-38.8086
-38.8966
-38.9621
-39.0055
-39.027
-36.6767
-36.9984
-37.3058
-37.5936
-37.8581
-38.0969
-38.3092
-38.4947
-38.6542
-38.7884
-38.8984
-38.9851
-39.0493
-39.0917
-39.1128
-36.7104
-37.0554
-37.3829
-37.6868
-37.9628
-38.209
-38.425
-38.6118
-38.7706
-38.9031
-39.0109
-39.0954
-39.1578
-39.1989
-39.2193
-36.7528
-37.1292
-37.4833
-37.8073
-38.0968
-38.3506
-38.5697
-38.7563
-38.9128
-39.0421
-39.1463
-39.2275
-39.2871
-39.3262
-39.3456
-36.8059
-37.2247
-37.6134
-37.9619
-38.2661
-38.5265
-38.7465
-38.9301
-39.0819
-39.2055
-39.3042
-39.3805
-39.4363
-39.4728
-39.4908
-36.8733
-37.35
-37.7832
-38.1604
-38.4787
-38.7425
-38.959
-39.1354
-39.2784
-39.3933
-39.484
-39.5537
-39.6043
-39.6373
-39.6536
-36.9613
-37.5183
-38.0089
-38.4172
-38.7457
-39.0058
-39.2111
-39.3737
-39.5026
-39.6046
-39.6844
-39.7452
-39.7893
-39.818
-39.8322
-37.0794
-37.7529
-38.3163
-38.7536
-39.0808
-39.3237
-39.506
-39.6452
-39.7532
-39.8376
-39.9032
-39.9531
-39.9892
-40.0128
-40.0245
-37.2402
-38.097
-38.7492
-39.1991
-39.4996
-39.7021
-39.8439
-39.9478
-40.027
-40.0888
-40.137
-40.1741
-40.2012
-40.219
-40.2278
-37.4611
-38.6448
-39.3838
-39.7925
-40.0148
-40.1408
-40.2196
-40.2751
-40.318
-40.3529
-40.3816
-40.4046
-40.4219
-40.4336
-40.4395
-37.8139
-39.6367
-40.3498
-40.5727
-40.6246
-40.6259
-40.6184
-40.6147
-40.6167
-40.6229
-40.6313
-40.6401
-40.6478
-40.6534
-40.6564
-38.9312
-41.7368
-41.8053
-41.5239
-41.2836
-41.1189
-41.0134
-40.9487
-40.911
-40.8903
-40.8801
-40.8761
-40.8751
-40.8754
-40.8758
-50.738
-50.7496
-50.7734
-50.8107
-50.8639
-50.9363
-51.0336
-51.1647
-51.3442
-51.5992
-51.9833
-52.6212
-53.8614
-56.9028
-66.7227
-50.8785
-50.8928
-50.9221
-50.968
-51.0335
-51.1228
-51.2427
-51.4043
-51.6256
-51.939
-52.4064
-53.1578
-54.4919
-57.1421
-62.8777
-51.0092
-51.0256
-51.0593
-51.112
-51.1867
-51.288
-51.423
-51.6024
-51.843
-52.1719
-52.6325
-53.2901
-54.2085
-55.2386
-54.752
-51.1286
-51.1465
-51.1833
-51.2407
-51.3215
-51.43
-51.5725
-51.7579
-51.9991
-52.3134
-52.7221
-53.2415
-53.8477
-54.3885
-54.5493
-51.2356
-51.2545
-51.2933
-51.3533
-51.4372
-51.5485
-51.6922
-51.8749
-52.1044
-52.3894
-52.7351
-53.1326
-53.5325
-53.8025
-53.6768
-51.3295
-51.3489
-51.3885
-51.4494
-51.5339
-51.6445
-51.7849
-51.9592
-52.1713
-52.4235
-52.7126
-53.0219
-53.3075
-53.4914
-53.4955
-51.41
-51.4295
-51.4689
-51.5294
-51.6124
-51.7199
-51.8541
-52.0172
-52.2103
-52.4322
-52.6767
-52.9276
-53.1532
-53.3055
-53.3157
-51.4771
-51.4963
-51.5349
-51.5938
-51.6741
-51.7768
-51.9033
-52.0543
-52.2292
-52.4255
-52.6366
-52.8509
-53.0498
-53.2185
-53.3779
-51.531
-51.5496
-51.5869
-51.6436
-51.7202
-51.8173
-51.9356
-52.0747
-52.2333
-52.4086
-52.595
-52.7847
-52.9674
-53.1381
-53.3131
-51.5721
-51.5899
-51.6256
-51.6796
-51.7521
-51.8433
-51.9533
-52.0814
-52.2259
-52.384
-52.5516
-52.7234
-52.8932
-53.055
-53.1717
-51.601
-51.6179
-51.6518
-51.7028
-51.771
-51.8563
-51.9585
-52.0766
-52.2089
-52.353
-52.5056
-52.6635
-52.8247
-53.0034
-53.3071
-51.6182
-51.6341
-51.6661
-51.7141
-51.7781
-51.8578
-51.9527
-52.0619
-52.1838
-52.3162
-52.4565
-52.6012
-52.7438
-52.8654
-52.8388
-51.6243
-51.6394
-51.6694
-51.7145
-51.7743
-51.8486
-51.9369
-52.0382
-52.1512
-52.2741
-52.4048
-52.5403
-52.6776
-52.8304
-53.1644
-51.6201
-51.6342
-51.6624
-51.7046
-51.7605
-51.8299
-51.9121
-52.0064
-52.1118
-52.2268
-52.35
-52.4783
-52.6004
-52.67
-52.4517
-51.6062
-51.6194
-51.6458
-51.6853
-51.7375
-51.8023
-51.879
-51.967
-52.0655
-52.1739
-52.292
-52.4205
-52.5597
-52.7096
-52.8557
-51.5831
-51.5955
-51.6202
-51.6571
-51.7059
-51.7664
-51.838
-51.9201
-52.0123
-52.1143
-52.2273
-52.3552
-52.5115
-52.7519
-53.3605
-51.5514
-51.563
-51.5861
-51.6207
-51.6663
-51.7228
-51.7896
-51.8663
-51.9522
-52.0473
-52.1524
-52.2703
-52.4049
-52.5388
-52.4078
-51.5117
-51.5226
-51.5442
-51.5765
-51.6192
-51.672
-51.7344
-51.8059
-51.8858
-51.9735
-52.0689
-52.1738
-52.2988
-52.5097
-53.2427
-51.4646
-51.4747
-51.495
-51.5252
-51.5652
-51.6146
-51.673
-51.7397
-51.8139
-51.8943
-51.9789
-52.0634
-52.1331
-52.1181
-51.5668
-51.4104
-51.4199
-51.4389
-51.4672
-51.5047
-51.551
-51.6057
-51.6682
-51.7376
-51.8123
-51.8894
-51.9633
-52.026
-52.0991
-52.5269
-51.3495
-51.3585
-51.3763
-51.4029
-51.4381
-51.4816
-51.533
-51.592
-51.6576
-51.7286
-51.8022
-51.871
-51.9117
-51.834
-51.1994
-51.2826
-51.2909
-51.3077
-51.3326
-51.3657
-51.4066
-51.4551
-51.511
-51.5739
-51.6433
-51.7185
-51.7983
-51.8794
-51.9557
-52.0151
-51.2097
-51.2176
-51.2333
-51.2568
-51.2878
-51.3263
-51.3722
-51.4252
-51.4856
-51.5538
-51.6318
-51.7247
-51.8504
-52.0892
-52.8719
-51.1315
-51.1388
-51.1536
-51.1756
-51.2048
-51.241
-51.2842
-51.3343
-51.3918
-51.4577
-51.5348
-51.6282
-51.7429
-51.8451
-51.5365
-51.048
-51.055
-51.0688
-51.0895
-51.1169
-51.1508
-51.1913
-51.2383
-51.2921
-51.3539
-51.4265
-51.5169
-51.6441
-51.8864
-52.7224
-50.9598
-50.9663
-50.9793
-50.9987
-51.0244
-51.0562
-51.0939
-51.1375
-51.1869
-51.2426
-51.306
-51.38
-51.4652
-51.5154
-51.0505
-50.867
-50.8731
-50.8853
-50.9035
-50.9276
-50.9573
-50.9924
-51.0326
-51.0773
-51.126
-51.1782
-51.2352
-51.3107
-51.5021
-52.4943
-50.7698
-50.7756
-50.7871
-50.8043
-50.8269
-50.8548
-50.8875
-50.9245
-50.9649
-51.0068
-51.047
-51.0777
-51.0756
-50.9328
-49.9634
-50.6687
-50.6741
-50.685
-50.7012
-50.7226
-50.7488
-50.7795
-50.8141
-50.8513
-50.8889
-50.9224
-50.9428
-50.9381
-50.9375
-51.4237
-50.5637
-50.5688
-50.5792
-50.5945
-50.6148
-50.6396
-50.6688
-50.7018
-50.7375
-50.7739
-50.8067
-50.8252
-50.7978
-50.6042
-49.6565
-50.455
-50.4599
-50.4698
-50.4844
-50.5037
-50.5275
-50.5555
-50.5876
-50.6231
-50.6613
-50.7009
-50.7395
-50.7729
-50.7945
-50.7975
-50.3428
-50.3476
-50.3569
-50.3709
-50.3894
-50.4123
-50.4395
-50.4709
-50.5068
-50.5477
-50.5957
-50.6572
-50.7561
-50.9977
-51.9412
-50.2273
-50.2319
-50.2409
-50.2543
-50.2721
-50.2941
-50.3205
-50.3512
-50.387
-50.4292
-50.481
-50.5489
-50.6402
-50.7135
-50.27
-50.1086
-50.113
-50.1216
-50.1346
-50.1517
-50.1729
-50.1983
-50.228
-50.2627
-50.3038
-50.3549
-50.4244
-50.5368
-50.788
-51.7628
-49.9867
-49.991
-49.9993
-50.0118
-50.0284
-50.0488
-50.0732
-50.1014
-50.1339
-50.1714
-50.2156
-50.2702
-50.3369
-50.3599
-49.7595
-49.8619
-49.866
-49.8741
-49.8862
-49.9022
-49.9219
-49.9452
-49.9719
-50.0017
-50.0341
-50.0689
-50.1076
-50.1673
-50.3645
-51.5145
-49.7341
-49.7381
-49.746
-49.7578
-49.7734
-49.7925
-49.8149
-49.8402
-49.8676
-49.8951
-49.9191
-49.9303
-49.9022
-49.7074
-48.5339
-49.6034
-49.6073
-49.6151
-49.6267
-49.6419
-49.6607
-49.6826
-49.7072
-49.7333
-49.7586
-49.7777
-49.7802
-49.7529
-49.7298
-50.2754
-49.4698
-49.4737
-49.4814
-49.4928
-49.5079
-49.5265
-49.5484
-49.5731
-49.5997
-49.6261
-49.6474
-49.6508
-49.6005
-49.3571
-48.2371
-49.3335
-49.3373
-49.3449
-49.3563
-49.3714
-49.3901
-49.4122
-49.4377
-49.4662
-49.4972
-49.5289
-49.5586
-49.5823
-49.5927
-49.583
-49.1943
-49.1981
-49.2057
-49.2171
-49.2322
-49.2511
-49.2736
-49.3002
-49.3311
-49.3674
-49.4115
-49.4706
-49.5734
-49.8421
-50.924
-49.0523
-49.0561
-49.0638
-49.0752
-49.0904
-49.1093
-49.1323
-49.1596
-49.1923
-49.2321
-49.283
-49.3522
-49.4491
-49.5264
-49.0087
-48.9075
-48.9114
-48.919
-48.9305
-48.9457
-48.9648
-48.9879
-49.0155
-49.0485
-49.089
-49.1411
-49.2146
-49.3384
-49.6238
-50.7454
-48.7599
-48.7638
-48.7714
-48.7829
-48.7982
-48.8173
-48.8403
-48.8675
-48.8996
-48.9376
-48.9837
-49.0421
-49.1155
-49.1402
-48.4475
-48.6095
-48.6133
-48.621
-48.6326
-48.6479
-48.6669
-48.6897
-48.7163
-48.7466
-48.7803
-48.8172
-48.859
-48.9264
-49.1543
-50.4864
-48.4562
-48.46
-48.4678
-48.4794
-48.4947
-48.5138
-48.5365
-48.5626
-48.5912
-48.6207
-48.6465
-48.6582
-48.6256
-48.4016
-47.0457
-48.3
-48.3039
-48.3117
-48.3234
-48.3389
-48.3581
-48.381
-48.407
-48.4353
-48.4633
-48.4849
-48.488
-48.4579
-48.4343
-49.0729
-48.1408
-48.1448
-48.1527
-48.1645
-48.1802
-48.1998
-48.2231
-48.25
-48.2797
-48.3101
-48.3353
-48.3409
-48.2856
-48.007
-46.7091
-47.9788
-47.9827
-47.9907
-48.0026
-48.0186
-48.0386
-48.0628
-48.0911
-48.1238
-48.1601
-48.1986
-48.2359
-48.2683
-48.2872
-48.2837
-47.8137
-47.8177
-47.8257
-47.8378
-47.854
-47.8744
-47.8994
-47.9294
-47.9652
-48.0084
-48.0619
-48.1345
-48.2603
-48.5826
-49.8586
-47.6456
-47.6497
-47.6577
-47.6699
-47.6862
-47.707
-47.7325
-47.7636
-47.8017
-47.8493
-47.9111
-47.996
-48.1157
-48.2153
-47.6181
-47.4745
-47.4785
-47.4866
-47.4988
-47.5152
-47.536
-47.5617
-47.593
-47.6315
-47.6799
-47.7432
-47.8333
-47.9852
-48.3313
-49.6703
-47.3004
-47.3044
-47.3124
-47.3245
-47.3408
-47.3615
-47.3869
-47.4176
-47.4547
-47.4998
-47.5558
-47.6278
-47.7199
-47.7574
-46.9473
-47.1232
-47.1272
-47.1351
-47.1471
-47.1632
-47.1835
-47.2083
-47.2378
-47.2723
-47.3119
-47.3563
-47.4081
-47.4925
-47.7717
-49.3731
-46.943
-46.9469
-46.9547
-46.9665
-46.9823
-47.0022
-47.0263
-47.0546
-47.0865
-47.1203
-47.1508
-47.1657
-47.1298
-46.8673
-45.2532
-46.7599
-46.7637
-46.7713
-46.7829
-46.7983
-46.8179
-46.8415
-46.869
-46.8995
-46.9305
-46.9549
-46.9585
-46.9244
-46.901
-47.6769
-46.5738
-46.5775
-46.5849
-46.5962
-46.6113
-46.6305
-46.6538
-46.6813
-46.7124
-46.745
-46.7724
-46.7775
-46.7116
-46.3792
-44.8208
-46.3848
-46.3884
-46.3956
-46.4065
-46.4212
-46.44
-46.4632
-46.4912
-46.5243
-46.5626
-46.6043
-46.6459
-46.6837
-46.7082
-46.7083
-46.1931
-46.1965
-46.2034
-46.2138
-46.228
-46.2462
-46.2691
-46.2975
-46.3329
-46.3774
-46.435
-46.5168
-46.665
-47.0536
-48.5997
-45.9987
-46.0019
-46.0084
-46.0182
-46.0316
-46.049
-46.0712
-46.0992
-46.1352
-46.1827
-46.2478
-46.3417
-46.4793
-46.5947
-45.869
-45.8018
-45.8048
-45.8107
-45.8198
-45.8322
-45.8484
-45.869
-45.8954
-45.9296
-45.9754
-46.0393
-46.1361
-46.309
-46.7194
-48.3377
-45.6026
-45.6052
-45.6106
-45.6187
-45.6298
-45.6443
-45.6628
-45.6863
-45.7162
-45.7551
-45.8067
-45.8777
-45.9738
-46.0046
-45.0088
-45.4012
-45.4035
-45.4081
-45.4152
-45.4248
-45.4374
-45.4531
-45.4727
-45.4967
-45.5255
-45.5594
-45.6017
-45.6839
-46.0022
-47.9178
-45.1979
-45.1998
-45.2037
-45.2095
-45.2175
-45.2279
-45.2407
-45.2562
-45.2739
-45.292
-45.3049
-45.2981
-45.2301
-44.8898
-42.9224
-44.9929
-44.9944
-44.9974
-45.002
-45.0083
-45.0164
-45.0264
-45.0382
-45.0509
-45.0617
-45.0626
-45.0369
-44.9654
-44.9068
-45.804
-44.7865
-44.7876
-44.7897
-44.793
-44.7975
-44.8034
-44.8107
-44.8196
-44.8295
-44.8379
-44.8373
-44.8075
-44.6916
-44.2595
-42.3746
-44.5791
-44.5797
-44.5809
-44.5828
-44.5855
-44.5891
-44.5939
-44.6005
-44.6092
-44.6199
-44.6308
-44.6378
-44.6375
-44.6203
-44.5791
-44.3708
-44.371
-44.3712
-44.3717
-44.3724
-44.3736
-44.3759
-44.38
-44.3877
-44.4013
-44.4255
-44.4733
-44.595
-44.997
-46.7596
-44.1622
-44.1618
-44.1611
-44.16
-44.1586
-44.1572
-44.1564
-44.1573
-44.1621
-44.1748
-44.2023
-44.2574
-44.3579
-44.4283
-43.5209
-43.9534
-43.9525
-43.9508
-43.9481
-43.9445
-43.9402
-43.9356
-43.9319
-43.9313
-43.9376
-43.9583
-44.0099
-44.1418
-44.5377
-46.3045
-43.7449
-43.7435
-43.7407
-43.7364
-43.7305
-43.723
-43.7142
-43.7046
-43.6958
-43.69
-43.6913
-43.7067
-43.7424
-43.6945
-42.4794
-43.5369
-43.5351
-43.5313
-43.5254
-43.5172
-43.5065
-43.4931
-43.477
-43.4583
-43.4369
-43.4128
-43.3894
-43.4011
-43.6612
-45.6556
-43.3299
-43.3276
-43.323
-43.3157
-43.3054
-43.2916
-43.2738
-43.2513
-43.2227
-43.1853
-43.1322
-43.0477
-42.8872
-42.4227
-40.1917
-43.124
-43.1214
-43.1161
-43.1076
-43.0956
-43.0792
-43.0578
-43.0299
-42.9935
-42.944
-42.8719
-42.7587
-42.5845
-42.4101
-43.2135
-42.9196
-42.9167
-42.9109
-42.9016
-42.8883
-42.8702
-42.8461
-42.8147
-42.7734
-42.718
-42.6384
-42.5122
-42.2818
-41.7178
-39.6821
-42.7167
-42.7138
-42.7077
-42.698
-42.684
-42.6649
-42.6395
-42.6063
-42.5635
-42.5082
-42.4355
-42.338
-42.2108
-42.0466
-41.8582
-42.5155
-42.5126
-42.5066
-42.4969
-42.483
-42.4638
-42.4381
-42.4047
-42.3624
-42.3101
-42.248
-42.1844
-42.1655
-42.3914
-43.9086
-42.3159
-42.3132
-42.3075
-42.2985
-42.2852
-42.2668
-42.242
-42.2096
-42.1684
-42.1181
-42.0598
-41.9999
-41.9502
-41.8388
-40.8024
-42.1178
-42.1154
-42.1105
-42.1025
-42.0906
-42.074
-42.0511
-42.0207
-41.981
-41.931
-41.8711
-41.8083
-41.7776
-41.9278
-43.1969
-41.9209
-41.919
-41.9151
-41.9087
-41.899
-41.8851
-41.8655
-41.8382
-41.8009
-41.7504
-41.6827
-41.5944
-41.4795
-41.2389
-39.9856
-41.7249
-41.7237
-41.721
-41.7167
-41.71
-41.6999
-41.6851
-41.663
-41.6302
-41.581
-41.5068
-41.3989
-41.2688
-41.2525
-42.4015
-41.5293
-41.5288
-41.5278
-41.5259
-41.5228
-41.5178
-41.5095
-41.4954
-41.471
-41.4284
-41.3527
-41.2188
-40.9789
-40.4562
-38.6432
-41.3337
-41.334
-41.3346
-41.3355
-41.3367
-41.3378
-41.3379
-41.335
-41.3248
-41.2981
-41.2372
-41.1122
-40.8856
-40.555
-40.6086
-41.1375
-41.1385
-41.1408
-41.1445
-41.1502
-41.158
-41.1682
-41.1799
-41.1901
-41.191
-41.1646
-41.0762
-40.8644
-40.3861
-39.1306
-40.9401
-40.9418
-40.9455
-40.9518
-40.9617
-40.9764
-40.9975
-41.0261
-41.0622
-41.1021
-41.1331
-41.1258
-41.0285
-40.7561
-40.272
-40.7412
-40.7433
-40.748
-40.7562
-40.7695
-40.7902
-40.8214
-40.8671
-40.9318
-41.019
-41.1264
-41.2381
-41.314
-41.2723
-41.0825
-40.5403
-40.5425
-40.5475
-40.5565
-40.5717
-40.5963
-40.6351
-40.695
-40.7861
-40.9212
-41.1147
-41.3752
-41.6812
-41.8907
-41.6497
-40.3376
-40.3395
-40.3439
-40.3522
-40.3671
-40.3923
-40.434
-40.5015
-40.6099
-40.7823
-41.0547
-41.4808
-42.1155
-42.8209
-42.1718
-40.1332
-40.1342
-40.137
-40.143
-40.1548
-40.1765
-40.2147
-40.2799
-40.3894
-40.5732
-40.8862
-41.4416
-42.5009
-44.691
-49.543
-39.9276
-39.9273
-39.9275
-39.9293
-39.9353
-39.9491
-39.9767
-40.0276
-40.1175
-40.2737
-40.5473
-41.0527
-42.101
-44.7115
-52.9944
-54.6744
-46.17
-43.4603
-42.3582
-41.8166
-41.5158
-41.338
-41.2302
-41.1648
-41.1254
-41.1022
-41.089
-41.0819
-41.0783
-41.0768
-51.5008
-46.1753
-43.8487
-42.7274
-42.1323
-41.7906
-41.5844
-41.4569
-41.3773
-41.3275
-41.2967
-41.2779
-41.2669
-41.2608
-41.2582
-43.118
-44.097
-43.4004
-42.731
-42.2706
-41.9706
-41.7763
-41.6505
-41.569
-41.5163
-41.4825
-41.4611
-41.4481
-41.4406
-41.4373
-42.9731
-43.1813
-42.9337
-42.5894
-42.296
-42.0764
-41.9207
-41.8133
-41.7405
-41.6916
-41.6592
-41.6382
-41.6249
-41.6172
-41.6136
-42.6888
-42.5814
-42.5343
-42.4124
-42.2684
-42.1372
-42.0316
-41.9524
-41.8953
-41.8553
-41.8278
-41.8093
-41.7974
-41.7904
-41.7871
-41.2923
-41.9386
-42.1872
-42.2505
-42.2305
-42.1795
-42.1242
-42.0762
-42.0382
-42.01
-41.9896
-41.9755
-41.9662
-41.9606
-41.9579
-40.6442
-41.5711
-41.9692
-42.1461
-42.2127
-42.2241
-42.212
-42.193
-42.1744
-42.1588
-42.1468
-42.138
-42.132
-42.1283
-42.1265
-41.3984
-41.5698
-41.9051
-42.1181
-42.2316
-42.2843
-42.3046
-42.3097
-42.3084
-42.305
-42.3013
-42.2981
-42.2958
-42.2942
-42.2935
-39.9979
-41.4539
-41.9263
-42.1589
-42.2913
-42.3662