/*--------------------------------*- C++ -*----------------------------------*\
| =========                 |                                                 |
| \\      /  F ield         | OpenFOAM: The Open Source CFD Toolbox           |
|  \\    /   O peration     | Version:  5.x                                   |
|   \\  /    A nd           | Web:      www.OpenFOAM.org                      |
|    \\/     M anipulation  |                                                 |
\*---------------------------------------------------------------------------*/
FoamFile
{
    version     2.0;
    format      ascii;
    class       volScalarField;
    location    "3.8";
    object      gradTy;
}
// * * * * * * * * * * * * * * * * * * * * * * * * * * * * * * * * * * * * * //

dimensions      [0 -1 0 1 0 0 0];

internalField   nonuniform List<scalar> 
6300
(
32275.6
32226.8
32178.1
32129.4
32080.7
32032.2
31983.8
31935.5
31887.4
31839.4
31791.6
31744.1
31696.7
31649.6
31602.8
-0.0152038
-0.0456769
-0.0763335
-0.107255
-0.138456
-0.169858
-0.201269
-0.232373
-0.26273
-0.291802
-0.319019
-0.343872
-0.36605
-0.385587
-0.402988
-0.0252624
-0.0759174
-0.126928
-0.178453
-0.230543
-0.283093
-0.335799
-0.38813
-0.439322
-0.488414
-0.534343
-0.576113
-0.613039
-0.645038
-0.672906
-0.0351991
-0.105804
-0.176999
-0.249071
-0.322154
-0.396154
-0.470682
-0.545001
-0.617986
-0.688158
-0.753792
-0.813161
-0.864915
-0.908585
-0.945099
-0.0449311
-0.135108
-0.226199
-0.318687
-0.412856
-0.508693
-0.605786
-0.703215
-0.799476
-0.892452
-0.97952
-1.05784
-1.12489
-1.17931
-1.22183
-0.0543399
-0.163485
-0.273986
-0.386605
-0.501871
-0.619957
-0.740528
-0.862572
-0.984221
-1.10262
-1.21397
-1.31374
-1.39745
-1.46191
-1.50684
-0.0632822
-0.190503
-0.319653
-0.451872
-0.58806
-0.728728
-0.873792
-1.02232
-1.1722
-1.31985
-1.45997
-1.58568
-1.68926
-1.76399
-1.807
-0.0715689
-0.215595
-0.36225
-0.513169
-0.66977
-0.833101
-1.00359
-1.1807
-1.3624
-1.54459
-1.72037
-1.87971
-2.00989
-2.09774
-2.13443
-0.0789676
-0.238055
-0.400582
-0.56878
-0.744746
-0.930308
-1.12677
-1.33447
-1.55211
-1.7757
-1.99717
-2.20287
-2.3728
-2.48254
-2.5105
-0.0852136
-0.257073
-0.433238
-0.616614
-0.810118
-1.01661
-1.23868
-1.47828
-1.73584
-2.0089
-2.2897
-2.56171
-2.7958
-2.94902
-2.97313
-0.0900267
-0.271779
-0.458678
-0.654312
-0.862494
-1.08731
-1.33307
-1.60409
-1.90403
-2.23431
-2.59095
-2.95838
-3.29955
-3.54449
-3.59079
-0.0931391
-0.281336
-0.475376
-0.679453
-0.898225
-1.13704
-1.40217
-1.70096
-2.04182
-2.43331
-2.88132
-3.38118
-3.89943
-4.33849
-4.49313
-0.0943313
-0.285045
-0.48203
-0.689887
-0.9139
-1.16045
-1.43757
-1.75573
-2.12891
-2.57572
-3.11974
-3.78549
-4.57842
-5.41686
-5.95064
-0.0934711
-0.282476
-0.477805
-0.684153
-0.907025
-1.15327
-1.43189
-1.75545
-2.14232
-2.62083
-3.23634
-4.06253
-5.21186
-6.79994
-8.59187
-0.0905466
-0.273578
-0.462553
-0.661887
-0.876765
-1.11368
-1.38126
-1.69179
-2.06401
-2.52885
-3.14219
-4.01637
-5.4066
-7.97925
-13.7565
31560.1
31521.5
31483.1
31444.8
31406.8
31369
31331.5
31294.2
31257.1
31220.3
31183.9
31147.7
31111.8
31076.3
31041.1
31006.2
30971.7
30937.6
30903.9
30870.5
30837.5
30804.9
30772.6
30740.7
30709.1
30677.8
30646.9
30616.2
30585.8
30555.7
30525.9
30496.2
30466.8
30437.6
30408.6
30379.8
30351.1
30322.6
30294.3
30266
30238
30210
30182.2
30154.5
30126.9
30099.5
30072.1
30044.9
30017.8
29990.7
29963.8
29937
29910.2
29883.5
29856.8
29830.2
29803.6
29777.1
29750.5
29724
29697.4
29670.8
29644.2
29617.6
29590.9
29564.1
29537.3
29510.4
29483.4
29456.4
29429.2
29401.9
29374.6
29347.1
29319.5
29291.8
29263.9
29235.9
29207.7
29179.4
29150.9
29122.3
29093.5
29064.5
29035.3
29005.9
28976.3
28946.6
28916.6
28886.4
-0.417922
-0.431686
-0.446625
-0.46372
-0.48379
-0.507342
-0.534457
-0.564744
-0.597371
-0.631174
-0.664817
-0.696965
-0.726434
-0.752289
-0.773865
-0.790737
-0.802651
-0.809453
-0.811047
-0.80739
-0.798523
-0.784608
-0.765964
-0.743065
-0.716523
-0.687037
-0.655352
-0.622224
-0.588396
-0.554586
-0.521471
-0.489661
-0.459666
-0.431858
-0.406462
-0.383563
-0.36314
-0.345115
-0.329385
-0.315842
-0.30435
-0.294702
-0.286574
-0.279489
-0.272831
-0.265883
-0.257914
-0.248267
-0.236449
-0.222178
-0.205401
-0.186265
-0.165075
-0.142236
-0.11821
-0.0934835
-0.0685427
-0.0438502
-0.0198118
0.00326001
0.0251767
0.045886
0.0654569
0.0840392
0.101811
0.118928
0.135502
0.151597
0.16726
0.182553
0.197573
0.212459
0.227359
0.242397
0.257633
0.273051
0.288566
0.304057
0.319409
0.334527
0.349343
0.363776
0.377686
0.390827
0.402825
0.413186
0.42134
0.426707
0.428769
0.427126
-0.696311
-0.7177
-0.741058
-0.768264
-0.800924
-0.84006
-0.885885
-0.937695
-0.993935
-1.05241
-1.11062
-1.16609
-1.21672
-1.26088
-1.29754
-1.32608
-1.3462
-1.3577
-1.36044
-1.35429
-1.33926
-1.31557
-1.28375
-1.24462
-1.19928
-1.14896
-1.09495
-1.03856
-0.981047
-0.923626
-0.867471
-0.813655
-0.763076
-0.716382
-0.673928
-0.635803
-0.6019
-0.572029
-0.545999
-0.523658
-0.504848
-0.489299
-0.476518
-0.465705
-0.455754
-0.445348
-0.433115
-0.417832
-0.39859
-0.374898
-0.346705
-0.314333
-0.278374
-0.239576
-0.198759
-0.156772
-0.114468
-0.0726662
-0.032103
0.00665237
0.0432672
0.0776782
0.110064
0.140758
0.170132
0.198491
0.226015
0.252771
0.278785
0.304123
0.328949
0.353532
0.378181
0.403158
0.42859
0.454431
0.48049
0.506508
0.532254
0.557579
0.582419
0.606718
0.630314
0.652838
0.673648
0.691848
0.706382
0.716168
0.720244
0.717896
-0.974452
-1.00079
-1.02985
-1.06486
-1.10863
-1.16304
-1.22859
-1.30416
-1.38717
-1.47392
-1.56024
-1.6421
-1.71618
-1.78017
-1.83277
-1.87344
-1.90203
-1.91845
-1.92249
-1.91384
-1.89232
-1.85811
-1.81191
-1.755
-1.68906
-1.61603
-1.53785
-1.45639
-1.37342
-1.2907
-1.20996
-1.13284
-1.06075
-0.994649
-0.935012
-0.881812
-0.834706
-0.793261
-0.757151
-0.726242
-0.700499
-0.679762
-0.663482
-0.650533
-0.639192
-0.627299
-0.612568
-0.59296
-0.567
-0.533965
-0.493892
-0.447435
-0.395633
-0.339694
-0.280866
-0.220395
-0.159545
-0.0995789
-0.0416723
0.0132442
0.0646462
0.1125
0.157218
0.199486
0.240024
0.279363
0.317736
0.355116
0.391384
0.426527
0.460773
0.494603
0.528623
0.563355
0.599047
0.635586
0.672559
0.709437
0.745786
0.78141
0.816352
0.850743
0.884558
0.917386
0.948293
0.975853
0.998326
1.01392
1.02104
1.01854
-1.25315
-1.28002
-1.31016
-1.34891
-1.40109
-1.47008
-1.55694
-1.66002
-1.77511
-1.89617
-2.0164
-2.12943
-2.23032
-2.31602
-2.38535
-2.43836
-2.47557
-2.49723
-2.50301
-2.49214
-2.46389
-2.41814
-2.35575
-2.2786
-2.18932
-2.09079
-1.98576
-1.87665
-1.76572
-1.65522
-1.54753
-1.44512
-1.35011
-1.26395
-1.18717
-1.1194
-1.05973
-1.00718
-0.961196
-0.921779
-0.889344
-0.864218
-0.846066
-0.833472
-0.823858
-0.813775
-0.79949
-0.777686
-0.746056
-0.703629
-0.650741
-0.588705
-0.519322
-0.444451
-0.365816
-0.285045
-0.203831
-0.124007
-0.0474171
0.0244165
0.0906562
0.151362
0.207426
0.260237
0.311178
0.361166
0.41043
0.458614
0.505163
0.549786
0.592767
0.634984
0.677631
0.721769
0.767893
0.815734
0.864395
0.912767
0.960012
1.00589
1.05075
1.09528
1.13992
1.18441
1.22748
1.26692
1.29992
1.32362
1.33551
1.3338
-1.5341
-1.55445
-1.57802
-1.61353
-1.66928
-1.75132
-1.86187
-1.99851
-2.1544
-2.31956
-2.48285
-2.63418
-2.76625
-2.8754
-2.96135
-3.02596
-3.07142
-3.09881
-3.10745
-3.0954
-3.06059
-3.00206
-2.92078
-2.81964
-2.70285
-2.57487
-2.43946
-2.29951
-2.15737
-2.01562
-1.87749
-1.74669
-1.62668
-1.51972
-1.42633
-1.3453
-1.27445
-1.21164
-1.15576
-1.10724
-1.06765
-1.03862
-1.02064
-1.01212
-1.0092
-1.00631
-0.997249
-0.976575
-0.940677
-0.888375
-0.820785
-0.740583
-0.650943
-0.554663
-0.453878
-0.350371
-0.246155
-0.143823
-0.0463567
0.043598
0.124588
0.196857
0.26227
0.32363
0.38365
0.44396
0.504628
0.564413
0.621662
0.675359
0.725812
0.774693
0.824442
0.877274
0.934218
0.994652
1.0566
1.11768
1.17617
1.23177
1.28561
1.33962
1.39546
1.45344
1.51187
1.56721
1.6149
1.65029
1.66952
1.66994
-1.82139
-1.8242
-1.82862
-1.84895
-1.89953
-1.99141
-2.12914
-2.30918
-2.52024
-2.74555
-2.96644
-3.16657
-3.33507
-3.46806
-3.56799
-3.64101
-3.6932
-3.72728
-3.74158
-3.73132
-3.69132
-3.61864
-3.51427
-3.38307
-3.23238
-3.0695
-2.89959
-2.72538
-2.54833
-2.37069
-2.19674
-2.03258
-1.88432
-1.75583
-1.64753
-1.55642
-1.47748
-1.40595
-1.33959
-1.27972
-1.23059
-1.19698
-1.18145
-1.18256
-1.19437
-1.20757
-1.2116
-1.19724
-1.15878
-1.09499
-1.00885
-0.905911
-0.791988
-0.671224
-0.545725
-0.416584
-0.285631
-0.156497
-0.0343465
0.0758225
0.171208
0.252356
0.32308
0.389083
0.455834
0.526368
0.600223
0.67399
0.743399
0.80573
0.861244
0.913277
0.966933
1.02698
1.09563
1.1715
1.25018
1.32642
1.39661
1.4603
1.52032
1.58142
1.64804
1.72192
1.80079
1.87864
1.94765
2.00031
2.03072
2.03513
-2.12338
-2.09153
-2.05619
-2.04064
-2.07014
-2.1653
-2.33527
-2.57498
-2.86536
-3.17766
-3.47969
-3.74427
-3.95476
-4.10808
-4.21307
-4.28577
-4.34076
-4.3839
-4.41076
-4.40973
-4.36875
-4.28051
-4.146
-3.97417
-3.77908
-3.57382
-3.3655
-3.1549
-2.93971
-2.71999
-2.50143
-2.29512
-2.11298
-1.96236
-1.84349
-1.74947
-1.6693
-1.5923
-1.51351
-1.43618
-1.37061
-1.32871
-1.31773
-1.33699
-1.37692
-1.42145
-1.4518
-1.45201
-1.41271
-1.33317
-1.22046
-1.08641
-0.942233
-0.793956
-0.642164
-0.484756
-0.321834
-0.158462
-0.00442925
0.129988
0.238984
0.323516
0.391337
0.454104
0.52321
0.604627
0.696575
0.790466
0.875945
0.946526
1.00229
1.05012
1.10081
1.16487
1.24722
1.34486
1.44783
1.5444
1.62691
1.69462
1.75397
1.81574
1.89062
1.98367
2.09158
2.20321
2.30435
2.38271
2.42973
2.4406
-2.45664
-2.36371
-2.25505
-2.16724
-2.14592
-2.23113
-2.44061
-2.76743
-3.1785
-3.62413
-4.04642
-4.39937
-4.6563
-4.81713
-4.90411
-4.95541
-5.00479
-5.06331
-5.11942
-5.145
-5.1135
-5.00829
-4.83069
-4.59799
-4.33959
-4.0817
-3.83378
-3.59016
-3.33667
-3.06667
-2.78749
-2.52185
-2.29525
-2.12211
-2.00259
-1.92149
-1.85546
-1.78006
-1.68418
-1.5745
-1.47533
-1.41465
-1.40922
-1.46035
-1.55157
-1.65445
-1.73405
-1.76233
-1.72321
-1.61774
-1.46137
-1.28009
-1.09695
-0.920315
-0.74525
-0.559426
-0.357239
-0.14553
0.0551838
0.22221
0.343437
0.420186
0.468313
0.511432
0.574285
0.66914
0.791538
0.920449
1.03132
1.11002
1.15612
1.18416
1.21675
1.2777
1.37806
1.51178
1.65589
1.78379
1.87969
1.94208
1.98523
2.03224
2.10807
2.22504
2.37795
2.5438
2.69473
2.81103
2.88154
2.90215
-2.85299
-2.65836
-2.42368
-2.19783
-2.06803
-2.11773
-2.3766
-2.83815
-3.44143
-4.10374
-4.71252
-5.19225
-5.49566
-5.63199
-5.64594
-5.62719
-5.65499
-5.7455
-5.87129
-5.96173
-5.96361
-5.83952
-5.5939
-5.25793
-4.89846
-4.57429
-4.29492
-4.0386
-3.75636
-3.42553
-3.053
-2.69123
-2.3994
-2.20345
-2.10515
-2.07057
-2.05386
-1.99606
-1.8734
-1.69639
-1.52324
-1.41968
-1.41785
-1.52453
-1.70795
-1.9195
-2.08872
-2.16816
-2.12775
-1.97406
-1.73659
-1.47485
-1.2407
-1.04278
-0.862191
-0.656012
-0.404706
-0.115111
0.164966
0.382045
0.5136
0.559734
0.554163
0.541999
0.580927
0.695639
0.878757
1.07803
1.23463
1.32204
1.3375
1.31323
1.29341
1.33528
1.46234
1.66525
1.88872
2.07067
2.1821
2.2186
2.21225
2.2085
2.26756
2.41584
2.64686
2.907
3.13602
3.30627
3.40614
3.44162
-3.37219
-3.0105
-2.5795
-2.09008
-1.73165
-1.70315
-2.02076
-2.70478
-3.6194
-4.66046
-5.5645
-6.23912
-6.57571
-6.62319
-6.43503
-6.23206
-6.21508
-6.37705
-6.67423
-6.90617
-6.99531
-6.84602
-6.48748
-5.95198
-5.40677
-5.00269
-4.72314
-4.52469
-4.24634
-3.84476
-3.3034
-2.76026
-2.3659
-2.14458
-2.11637
-2.19435
-2.31187
-2.30592
-2.14139
-1.81323
-1.47153
-1.27876
-1.27077
-1.4788
-1.82444
-2.24609
-2.5733
-2.74727
-2.69607
-2.45173
-2.04745
-1.63058
-1.33303
-1.14098
-1.01671
-0.818305
-0.508039
-0.0717245
0.364723
0.664291
0.806029
0.772993
0.648768
0.498259
0.477714
0.622911
0.942005
1.29636
1.5369
1.637
1.57541
1.43521
1.28059
1.26958
1.43682
1.78855
2.18079
2.45858
2.59189
2.55629
2.43502
2.29383
2.29812
2.48708
2.87345
3.31461
3.66155
3.90245
4.02302
4.08789
-4.12601
-3.46246
-2.81954
-1.79388
-0.920547
-0.790635
-1.13786
-2.24002
-3.61598
-5.41528
-6.74771
-7.77369
-8.07313
-7.95484
-7.24664
-6.57044
-6.51886
-6.81536
-7.57267
-8.05786
-8.37204
-8.15563
-7.63778
-6.662
-5.71393
-5.25395
-5.03682
-5.12813
-4.91614
-4.46771
-3.55892
-2.61769
-2.08593
-1.81044
-1.97755
-2.26417
-2.75072
-2.84728
-2.64824
-1.95292
-1.20876
-0.8753
-0.816259
-1.23856
-1.8352
-2.71251
-3.28245
-3.65458
-3.54658
-3.16386
-2.38064
-1.61877
-1.27771
-1.14594
-1.28234
-1.14607
-0.797297
-0.0329706
0.757129
1.16934
1.34566
1.11309
0.776757
0.262915
0.131401
0.295354
0.950094
1.67425
2.03709
2.18055
1.92229
1.57383
1.05691
0.943195
1.14168
1.84969
2.63393
3.0509
3.24141
3.01386
2.68311
2.1664
2.05957
2.27097
3.0182
3.85503
4.33709
4.66927
4.71756
4.88306
-5.35495
-3.88483
-3.61081
-1.27814
0.961384
0.809289
0.832459
-1.38068
-3.00265
-6.84211
-8.37193
-10.3542
-10.1717
-10.1356
-8.01175
-6.00888
-6.32093
-6.58966
-8.86252
-9.45538
-10.5124
-9.8988
-9.4469
-7.33154
-5.31759
-5.15487
-4.90572
-6.16773
-5.92578
-5.7529
-3.8604
-1.88471
-1.43615
-0.838226
-1.66588
-2.04533
-3.75039
-3.81353
-3.86892
-2.16206
-0.353678
-0.0757504
0.332281
-0.746408
-1.44094
-3.62062
-4.27556
-5.25236
-4.79169
-4.45173
-2.68208
-0.999966
-0.919994
-0.763727
-1.93957
-1.77883
-1.6839
-0.030276
1.69475
2.01515
2.47513
1.60369
1.16144
-0.521892
-0.639292
-0.737864
0.859277
2.57347
2.85424
3.30363
2.40016
1.95609
0.253688
0.168318
0.113867
1.80205
3.61686
3.97024
4.49389
3.62101
3.19998
1.44971
1.36373
1.28413
3.03471
4.90705
5.22919
5.84565
5.24418
5.93614
-7.92122
-2.58467
-7.36638
-0.628142
6.28747
2.15712
6.02341
-1.37234
0.804211
-11.5946
-9.34433
-16.0515
-12.0592
-15.3222
-8.60226
-2.11338
-6.18496
-3.47751
-12.5712
-10.1841
-15.0578
-11.4087
-13.6509
-7.85444
-2.25491
-5.1796
-2.59792
-9.3724
-6.83531
-9.5137
-4.28098
1.04806
-1.0007
2.18762
-1.9989
0.0831589
-7.11368
-4.79016
-7.62646
-2.51656
2.70611
0.53732
3.62261
-0.806575
1.09285
-6.7235
-4.80427
-8.91921
-5.86208
-7.79739
-2.85651
1.92691
-0.671142
1.53774
-4.52046
-2.3158
-4.81403
-0.129375
4.65606
2.66101
5.52289
1.47729
3.33434
-3.56058
-1.43605
-4.21184
0.600935
5.53787
3.4296
6.37583
2.21753
4.15139
-2.87699
-0.650064
-3.42228
1.57304
6.70522
4.64539
7.75826
3.57847
5.63186
-1.66255
0.659586
-2.33724
2.87675
8.19218
5.69829
8.77661
3.90912
7.84391
-17.2937
13.286
-27.7104
-0.233431
27.5198
-8.01023
27.4317
-15.1482
25.5995
-37.4417
2.58179
-37.1561
-3.49939
-34.8845
-8.86035
16.9889
-15.8111
16.6279
-32.8125
-0.457632
-31.8765
-4.43566
-29.4311
-8.09435
13.0821
-13.1341
13.1822
-25.9864
-0.23519
-24.6673
-4.84101
14.6041
-8.10746
15.8324
-11.3596
15.5724
-24.1873
1.6624
-22.8276
-3.03454
16.4085
-6.41665
17.7327
-9.98116
17.6162
-23.8469
3.35494
-22.9152
0.255274
-21.0462
-2.80564
15.4816
-7.34577
15.7423
-19.0014
3.91788
-18.289
-0.375164
17.3797
-3.68868
18.5158
-7.15052
18.1085
-19.5888
4.82205
-18.6149
0.162252
18.6458
-3.27505
19.677
-6.73927
19.2508
-19.3367
5.72887
-18.145
1.14562
20.1487
-2.12943
21.5228
-5.44105
21.5233
-18.6237
7.61364
-17.7831
2.57174
22.7218
-1.85747
23.1486
-10.1022
15.1665
28852.9
28816.2
28779.1
28741.8
28704.3
28666.5
28628.5
28590.3
28551.9
28513.4
28474.8
28436
28397.2
28358.4
28319.5
0.420988
0.408608
0.390864
0.368391
0.342023
0.312674
0.281228
0.248463
0.215012
0.181344
0.147766
0.114448
0.0814479
0.0487352
0.016221
0.707786
0.686831
0.656584
0.618228
0.573288
0.523403
0.470132
0.414828
0.358564
0.302112
0.245967
0.190384
0.135425
0.0810098
0.02696
1.0045
0.974347
0.930413
0.874646
0.809491
0.737508
0.661066
0.582156
0.502307
0.42258
0.343614
0.2657
0.188861
0.112922
0.0375718
1.31594
1.27553
1.21597
1.14035
1.05243
0.955991
0.854401
0.750371
0.645891
0.542262
0.440193
0.339936
0.241398
0.144244
0.047979
1.64827
1.59583
1.51755
1.41832
1.30384
1.17957
1.05012
0.918996
0.788595
0.660355
0.53494
0.412439
0.292544
0.174674
0.0580795
2.00944
1.942
1.8401
1.71155
1.565
1.40825
1.24744
1.08684
0.929101
0.775597
0.626749
0.482321
0.341654
0.203822
0.0677433
2.41027
2.32281
2.18944
2.0229
1.83639
1.64097
1.44448
1.25174
1.06531
0.886144
0.71411
0.548425
0.387918
0.23121
0.076812
2.86594
2.74999
2.57231
2.35452
2.11696
1.87489
1.63772
1.41024
1.19419
0.989501
0.795085
0.609325
0.430368
0.256278
0.0851032
3.3987
3.23943
2.9958
2.70639
2.40258
2.1043
1.82144
1.5573
1.31164
1.08252
0.867356
0.663387
0.467929
0.278418
0.0924199
4.04358
3.81302
3.46492
3.07269
2.68309
2.31877
1.98672
1.686
1.41256
1.16156
0.928379
0.708902
0.499515
0.297032
0.0985707
4.86883
4.50269
3.97695
3.43511
2.938
2.50116
2.12091
1.78756
1.49106
1.22274
0.975666
0.744293
0.524172
0.311608
0.103396
6.04536
5.35252
4.50566
3.75191
3.13207
2.62691
2.20831
1.85238
1.54139
1.26268
1.00722
0.768405
0.541254
0.321823
0.106797
8.0347
6.3564
4.94265
3.93494
3.21126
2.66614
2.23311
1.8723
1.55945
1.27937
1.0221
0.780822
0.550598
0.327622
0.108763
11.9096
7.09473
4.97326
3.83378
3.11185
2.59338
2.18584
1.84431
1.54475
1.2732
1.02094
0.782156
0.552672
0.329294
0.109389
-0.0862287
-0.260402
-0.439823
-0.628343
-0.83041
-1.05146
-1.29852
-1.58126
-1.91392
-2.31919
-2.83692
-3.54593
-4.62629
-6.55993
-10.8494
-0.0809833
-0.244385
-0.412154
-0.587416
-0.773639
-0.974816
-1.1957
-1.44205
-1.72092
-2.0405
-2.4081
-2.81954
-3.21078
-3.23616
-1.21376
-0.0747402
-0.225332
-0.379276
-0.538869
-0.706471
-0.884476
-1.07516
-1.28021
-1.49959
-1.72843
-1.94884
-2.10722
-2.04921
-1.33423
1.25502
-0.0677236
-0.203945
-0.342469
-0.484751
-0.632067
-0.785318
-0.944605
-1.10837
-1.27162
-1.42214
-1.5327
-1.54527
-1.34364
-0.734014
0.379736
-0.0601671
-0.180954
-0.303046
-0.427126
-0.55353
-0.68195
-0.810915
-0.93685
-1.05241
-1.14352
-1.18462
-1.13219
-0.921122
-0.48394
0.155386
-0.0522951
-0.157051
-0.262233
-0.367876
-0.47358
-0.57819
-0.679305
-0.772495
-0.850099
-0.899536
-0.901462
-0.829369
-0.655494
-0.374222
-0.0591005
-0.0443065
-0.132846
-0.22109
-0.308572
-0.394374
-0.476839
-0.55318
-0.618934
-0.667293
-0.688456
-0.669632
-0.597244
-0.464377
-0.287957
-0.136808
-0.0363662
-0.10884
-0.180466
-0.25042
-0.317465
-0.379719
-0.434384
-0.477429
-0.503333
-0.505073
-0.474924
-0.407074
-0.303447
-0.184071
-0.102579
-0.0286026
-0.0854158
-0.140988
-0.194269
-0.243859
-0.287845
-0.32363
-0.347805
-0.356122
-0.343781
-0.306331
-0.241682
-0.153387
-0.0538074
0.0427589
-0.021108
-0.0628441
-0.103088
-0.140662
-0.174121
-0.201634
-0.22091
-0.229164
-0.223229
-0.199884
-0.156572
-0.0926392
-0.0110974
0.0786299
0.150497
-0.0139433
-0.0412995
-0.0670242
-0.0898932
-0.108484
-0.121112
-0.125807
-0.120346
-0.102397
-0.0698155
-0.021078
0.0442499
0.125572
0.223554
0.353124
-0.00714315
-0.0208777
-0.0329276
-0.0420727
-0.0469582
-0.0460658
-0.0377216
-0.0201637
0.00830414
0.0490708
0.10295
0.170112
0.250728
0.346631
0.458332
-0.000722565
-0.00161526
-0.0008308
0.00281346
0.0105846
0.0238409
0.0440043
0.0724794
0.110498
0.158888
0.217814
0.28672
0.365318
0.458829
0.599832
0.00531808
0.0164933
0.029298
0.0448586
0.0643494
0.0889877
0.119998
0.158534
0.205524
0.261423
0.325805
0.396692
0.469601
0.538137
0.614656
0.0109881
0.0334811
0.0575315
0.0842003
0.114572
0.149748
0.190809
0.238759
0.294399
0.358104
0.429336
0.505353
0.576967
0.611991
0.478617
0.016303
0.0493985
0.0839657
0.120997
0.161494
0.20646
0.25688
0.313687
0.377711
0.449593
0.529601
0.617169
0.709791
0.802873
0.914746
0.0212818
0.0643051
0.108708
0.155414
0.205348
0.259427
0.318562
0.383649
0.455607
0.535475
0.624675
0.725574
0.842356
0.980812
1.13304
0.0259453
0.078265
0.131871
0.187619
0.246358
0.308927
0.376156
0.448887
0.528052
0.614915
0.711685
0.823055
0.959954
1.14928
1.46473
0.0303148
0.0913435
0.153567
0.217775
0.284746
0.355236
0.42998
0.509705
0.595197
0.687517
0.788614
0.902905
1.04123
1.23029
1.53387
0.0344113
0.103604
0.173906
0.246044
0.320727
0.398635
0.480395
0.56657
0.657646
0.754072
0.856448
0.966172
1.08734
1.23187
1.42829
0.0382548
0.115108
0.19299
0.272574
0.35451
0.439406
0.527796
0.620083
0.716429
0.816544
0.919253
1.0216
1.1173
1.19754
1.28941
0.0418636
0.125911
0.210915
0.297503
0.386277
0.477797
0.572543
0.670828
0.772641
0.877263
0.982385
1.08177
1.15804
1.15526
0.851766
0.0452544
0.136062
0.227763
0.320945
0.416177
0.513999
0.614884
0.719177
0.826949
0.937682
1.04958
1.15813
1.25372
1.32192
1.38642
0.0484422
0.145606
0.243606
0.342995
0.444323
0.548124
0.654914
0.765164
0.879249
0.997337
1.11916
1.24363
1.36849
1.49127
1.61193
0.0514408
0.154583
0.258506
0.363734
0.470794
0.580226
0.692599
0.808543
0.928817
1.05444
1.18697
1.32897
1.48481
1.6622
1.88049
0.0542633
0.163031
0.272525
0.383235
0.495662
0.610339
0.727863
0.848973
0.974719
1.1068
1.24828
1.40482
1.58626
1.80486
2.04736
0.0569228
0.17099
0.285725
0.401577
0.519013
0.638529
0.760695
0.886244
1.01627
1.15269
1.29921
1.46351
1.662
1.93107
2.36109
0.0594331
0.178501
0.298172
0.418856
0.540964
0.664932
0.791237
0.920463
1.05345
1.19162
1.33787
1.49859
1.68883
1.94566
2.36633
0.0618085
0.185606
0.309943
0.43518
0.561671
0.689767
0.81981
0.952132
1.08707
1.225
1.36658
1.51332
1.66952
1.84663
2.06383
0.0640636
0.192351
0.321116
0.45067
0.581311
0.713307
0.846861
0.982046
1.11866
1.25591
1.39178
1.52163
1.63575
1.71991
1.80736
0.0662127
0.198779
0.331765
0.465442
0.600058
0.735821
0.872841
1.01103
1.14986
1.28783
1.42125
1.54101
1.62284
1.59104
1.15062
0.0682691
0.204931
0.341962
0.479598
0.618058
0.757519
0.898072
1.03963
1.1817
1.32296
1.4603
1.58687
1.68891
1.74608
1.78616
0.0702446
0.210842
0.351764
0.493221
0.635412
0.778517
0.922672
1.06793
1.21416
1.36087
1.50691
1.64992
1.78622
1.91312
2.03793
0.0721499
0.216544
0.361222
0.506371
0.65218
0.798844
0.946572
1.09561
1.24633
1.39931
1.55569
1.71777
1.89015
2.08175
2.31448
0.0739948
0.222065
0.370378
0.5191
0.668405
0.818492
0.969625
1.12221
1.27698
1.43542
1.60058
1.77862
1.98082
2.22198
2.48896
0.0757888
0.227433
0.379278
0.531462
0.684134
0.837474
0.991735
1.14735
1.30515
1.46694
1.63661
1.82281
2.04455
2.34443
2.8275
0.0775418
0.232677
0.387969
0.543523
0.69945
0.855875
1.01297
1.17102
1.33062
1.49303
1.66126
1.84248
2.05412
2.33982
2.81582
0.0792637
0.237829
0.396506
0.555365
0.714469
0.87387
1.03361
1.1937
1.35418
1.51514
1.67698
1.84117
2.01237
2.2032
2.43282
0.0809646
0.242918
0.404942
0.567074
0.729331
0.891691
1.05406
1.21617
1.37747
1.53669
1.69116
1.83516
1.95705
2.03981
2.12154
0.0826537
0.247975
0.413331
0.578735
0.744171
0.909568
1.07474
1.23928
1.40224
1.56159
1.7127
1.84466
1.92895
1.87729
1.34694
0.0843389
0.253021
0.421715
0.590413
0.759088
0.927658
1.09594
1.26353
1.42959
1.59226
1.74763
1.88743
1.99533
2.04731
2.07486
0.0860258
0.258076
0.430121
0.602147
0.774127
0.946007
1.11768
1.28893
1.45933
1.62806
1.79345
1.9525
2.10062
2.23444
2.36256
0.0877189
0.263151
0.438566
0.61395
0.789286
0.964561
1.13977
1.31497
1.4903
1.66621
1.84375
2.02532
2.21593
2.42567
2.67948
0.0894209
0.268254
0.44706
0.625824
0.804537
0.983217
1.16195
1.34097
1.52093
1.70328
1.89133
2.09198
2.31805
2.58644
2.88137
0.0911343
0.27339
0.45561
0.63777
0.81986
1.0019
1.18398
1.36641
1.54994
1.73645
1.93025
2.14112
2.3909
2.72891
3.27722
0.0928613
0.278568
0.464226
0.649804
0.835269
1.0206
1.20584
1.39113
1.57696
1.76462
1.95739
2.16337
2.40258
2.72551
3.26658
0.0946044
0.283794
0.472926
0.661952
0.850815
1.03944
1.22772
1.41554
1.60275
1.7893
1.97546
2.1627
2.35622
2.57076
2.82965
0.0963655
0.289077
0.481724
0.674252
0.866577
1.05857
1.24999
1.44042
1.62907
1.81431
1.99285
2.15781
2.29533
2.38536
2.47191
0.0981454
0.294418
0.490632
0.686729
0.88262
1.07814
1.273
1.46661
1.65779
1.84403
2.01978
2.17212
2.26747
2.20251
1.57682
0.0999427
0.299815
0.499645
0.699388
0.898965
1.09824
1.29694
1.49455
1.69
1.88107
2.06306
2.22615
2.351
2.40919
2.43732
0.101754
0.305257
0.508745
0.712196
0.915569
1.11879
1.3217
1.52405
1.72531
1.92446
2.11953
2.30688
2.48087
2.63689
2.78238
0.103572
0.310724
0.517896
0.725096
0.932328
1.1396
1.34692
1.55436
1.76212
1.97073
2.18143
2.39703
2.62333
2.87203
3.17274
0.105391
0.316192
0.527051
0.738007
0.949108
1.16043
1.37211
1.58451
1.7984
2.01559
2.24001
2.47986
2.75033
3.07117
3.42188
0.107201
0.321634
0.536163
0.750854
0.965782
1.18106
1.39688
1.61368
1.83246
2.05548
2.28794
2.54156
2.84243
3.2497
3.91058
0.108993
0.327024
0.545187
0.763569
0.982259
1.20136
1.42102
1.64154
1.86361
2.08886
2.32127
2.57057
2.86074
3.25227
3.90554
0.110759
0.332335
0.554083
0.776106
0.998496
1.22132
1.44462
1.66838
1.89261
2.11732
2.34296
2.57133
2.80874
3.07321
3.39446
0.112489
0.337542
0.56281
0.788422
1.01447
1.24101
1.46794
1.69497
1.92131
2.1452
2.36282
2.56596
2.73801
2.85485
2.96938
0.114173
0.342612
0.571321
0.800464
1.03016
1.26047
1.49126
1.72208
1.95175
2.17748
2.39281
2.58233
2.70566
2.63822
1.89635
0.115798
0.347507
0.579555
0.812152
1.04548
1.27964
1.5146
1.75004
1.98497
2.21702
2.44081
2.64479
2.80585
2.89004
2.94203
0.117347
0.352179
0.587429
0.823366
1.06025
1.2983
1.53768
1.77841
2.02024
2.26232
2.50263
2.73717
2.95949
3.16435
3.36057
0.118803
0.356575
0.594847
0.833956
1.07425
1.31608
1.55986
1.80607
2.05539
2.30888
2.56853
2.83818
3.12532
3.44478
3.83347
0.120148
0.360637
0.601706
0.843755
1.08721
1.33256
1.58041
1.83163
2.08767
2.35121
2.62755
2.92712
3.26881
3.67723
4.12946
0.121364
0.364308
0.607904
0.852606
1.0989
1.34736
1.59868
1.8539
2.11479
2.38469
2.6705
2.98694
3.36602
3.87937
4.70376
0.122433
0.367537
0.613354
0.860378
1.10913
1.3602
1.61427
1.87228
2.13569
2.40716
2.69224
3.00337
3.37007
3.86564
4.6845
0.123343
0.370281
0.617985
0.866976
1.11779
1.371
1.62719
1.88697
2.15103
2.42023
2.69595
2.98133
3.28468
3.62753
4.0411
0.124079
0.372506
0.621741
0.872332
1.12483
1.37978
1.63764
1.89872
2.16284
2.4288
2.69304
2.94694
3.17191
3.34041
3.51575
0.124633
0.37418
0.624574
0.876389
1.1302
1.38656
1.64592
1.9084
2.17342
2.43859
2.69736
2.93274
3.0984
3.04865
2.21333
0.124995
0.375276
0.626437
0.879084
1.13384
1.39131
1.65206
1.91637
2.18391
2.45285
2.718
2.96706
3.17452
3.3025
3.40493
0.125158
0.37577
0.627286
0.88034
1.13561
1.39383
1.65576
1.92213
2.19347
2.46978
2.74985
3.03039
3.30587
3.5742
3.85701
0.125117
0.375647
0.627083
0.880079
1.13537
1.39381
1.65642
1.92448
2.19962
2.48412
2.78143
3.09732
3.44223
3.83593
4.32271
0.124873
0.374905
0.625812
0.878246
1.13297
1.39092
1.65334
1.92194
2.19929
2.48959
2.80014
3.14418
3.54478
4.03311
4.59666
0.124434
0.373562
0.623495
0.874844
1.12835
1.38497
1.64601
1.91336
2.19001
2.48102
2.79563
3.15186
3.58645
4.17813
5.11269
0.123816
0.371669
0.620207
0.869963
1.1216
1.37598
1.63432
1.89836
2.17079
2.45609
2.76227
3.10519
3.51908
4.08513
5.02037
0.123048
0.369309
0.616087
0.863795
1.11296
1.36428
1.6187
1.87755
2.14267
2.41667
2.70344
3.00933
3.34607
3.73584
4.19198
0.122166
0.366596
0.611332
0.856634
1.10285
1.35044
1.60004
1.85243
2.10841
2.36841
2.63138
2.89213
3.13627
3.34053
3.57248
0.12122
0.363677
0.606196
0.848857
1.0918
1.33524
1.57948
1.82483
2.07137
2.3181
2.5609
2.78653
2.95418
2.92607
2.14576
0.120264
0.360721
0.600972
0.8409
1.08042
1.3195
1.55816
1.79644
2.0342
2.27054
2.50237
2.72127
2.90806
3.03402
3.1574
0.119358
0.357913
0.595982
0.83324
1.06937
1.30407
1.53713
1.76844
1.99804
2.22613
2.45286
2.67835
2.90421
3.1438
3.46059
0.118566
0.355447
0.591565
0.826378
1.05932
1.28981
1.51734
1.74163
1.96295
2.18266
2.40423
2.63523
2.89087
3.2
3.61073
0.11795
0.353516
0.58806
0.820828
1.05098
1.27761
1.49981
1.71692
1.929
2.1379
2.34908
2.57505
2.84039
3.18568
3.6507
0.117567
0.352299
0.585794
0.817103
1.04511
1.26851
1.48584
1.6957
1.89728
2.09156
2.28367
2.48755
2.73441
3.08827
3.67369
0.117462
0.351946
0.58505
0.815676
1.04245
1.26363
1.47707
1.68024
1.87065
2.04673
2.21012
2.37025
2.55414
2.83008
3.39121
0.117666
0.352552
0.586033
0.816928
1.04368
1.26415
1.47543
1.67366
1.85396
2.01073
2.13884
2.2365
2.30994
2.37389
2.39405
0.118178
0.354135
0.588812
0.821063
1.04927
1.27104
1.48286
1.67954
1.85361
1.99462
2.08874
2.11959
2.07237
1.94813
1.83102
0.118968
0.356608
0.593274
0.828008
1.05932
1.28485
1.50079
1.70111
1.87622
2.01108
2.08258
2.05692
1.88829
1.51745
0.824808
0.119962
0.359755
0.599077
0.837324
1.07339
1.3053
1.52956
1.74018
1.92679
2.07153
2.14392
2.09358
1.84463
1.31026
0.483161
0.121046
0.363228
0.60562
0.848147
1.09034
1.33104
1.5678
1.79592
2.00643
2.18224
2.29051
2.2682
1.99921
1.30635
0.140918
0.122066
0.366551
0.612064
0.85919
1.10832
1.3595
1.61203
1.86388
2.11017
2.33986
2.52781
2.61415
2.44815
1.63059
-0.912218
0.122841
0.369156
0.617381
0.868828
1.12488
1.38699
1.65672
1.93571
2.22545
2.52651
2.83573
3.13537
3.34952
3.15286
1.08075
0.123175
0.37043
0.620449
0.875257
1.1372
1.40916
1.69496
2.00006
2.33288
2.70756
3.15037
3.71605
4.53602
5.97716
9.21506
9.04495
5.66468
4.20243
3.39316
2.84927
2.43283
2.08655
1.783
1.50742
1.25109
1.00839
0.775437
0.549361
0.327866
0.109003
0.468137
2.70432
2.95579
2.77617
2.50841
2.23133
1.9627
1.70535
1.45843
1.22032
0.989343
0.763959
0.542777
0.324518
0.107983
-1.58431
1.12232
2.00843
2.22035
2.17399
2.02398
1.83103
1.62046
1.40333
1.18459
0.966404
0.749553
0.534155
0.319968
0.106566
-0.289536
0.804517
1.52919
1.84387
1.91158
1.84648
1.71163
1.54012
1.34933
1.14848
0.942523
0.734129
0.524685
0.314868
0.10496
-0.156648
0.743187
1.33464
1.63892
1.74141
1.71744
1.61769
1.47319
1.30231
1.11589
0.920327
0.719425
0.515468
0.309828
0.103359
0.127141
0.89599
1.33951
1.57411
1.65908
1.64103
1.55484
1.42456
1.26609
1.08965
0.901828
0.706838
0.507414
0.305362
0.10193
1.04695
1.27472
1.48946
1.61325
1.6483
1.61196
1.5226
1.39553
1.24233
1.07132
0.888304
0.697326
0.501183
0.301853
0.100799
1.56204
1.66253
1.70258
1.71405
1.68713
1.61973
1.51655
1.38464
1.23095
1.06131
0.880311
0.691403
0.497167
0.299543
0.100047
2.47623
2.09232
1.93558
1.84155
1.75409
1.65237
1.53046
1.38889
1.23064
1.05921
0.877814
0.689183
0.495505
0.298533
0.09971
2.77486
2.36439
2.12505
1.96453
1.83097
1.69904
1.55802
1.40474
1.23951
1.06402
0.88035
0.690475
0.496134
0.298813
0.0997885
2.89113
2.51764
2.25983
2.06881
1.90676
1.75202
1.59412
1.42891
1.2555
1.07453
0.887205
0.694875
0.49884
0.300278
0.100252
2.92233
2.59059
2.34826
2.15303
1.97748
1.80722
1.6353
1.45877
1.27677
1.08947
0.897547
0.701858
0.503306
0.302763
0.101049
2.88279
2.6015
2.404
2.22361
2.04456
1.86357
1.67969
1.49247
1.30174
1.10764
0.910517
0.71084
0.509165
0.306065
0.102116
2.66371
2.55426
2.4479
2.29331
2.11302