/*--------------------------------*- C++ -*----------------------------------*\
| =========                 |                                                 |
| \\      /  F ield         | OpenFOAM: The Open Source CFD Toolbox           |
|  \\    /   O peration     | Version:  5.x                                   |
|   \\  /    A nd           | Web:      www.OpenFOAM.org                      |
|    \\/     M anipulation  |                                                 |
\*---------------------------------------------------------------------------*/
FoamFile
{
    version     2.0;
    format      ascii;
    class       volScalarField;
    location    "3.8";
    object      T;
}
// * * * * * * * * * * * * * * * * * * * * * * * * * * * * * * * * * * * * * //

dimensions      [0 0 0 1 0 0 0];

internalField   nonuniform List<scalar> 
6300
(
322.756
322.268
321.781
321.294
320.808
320.323
319.838
319.356
318.874
318.395
317.917
317.442
316.968
316.498
316.029
322.756
322.268
321.78
321.293
320.807
320.322
319.837
319.354
318.873
318.393
317.915
317.439
316.966
316.495
316.027
322.756
322.267
321.779
321.292
320.805
320.319
319.834
319.351
318.869
318.389
317.911
317.435
316.961
316.49
316.021
322.755
322.267
321.778
321.29
320.802
320.316
319.83
319.346
318.864
318.383
317.904
317.428
316.954
316.482
316.013
322.755
322.265
321.776
321.287
320.799
320.311
319.825
319.34
318.857
318.375
317.896
317.419
316.944
316.472
316.002
322.755
322.264
321.773
321.283
320.794
320.306
319.818
319.332
318.848
318.365
317.885
317.407
316.931
316.458
315.989
322.754
322.262
321.77
321.279
320.789
320.299
319.81
319.323
318.837
318.353
317.871
317.392
316.916
316.442
315.972
322.753
322.26
321.767
321.274
320.782
320.291
319.801
319.312
318.824
318.339
317.856
317.375
316.897
316.423
315.952
322.753
322.258
321.763
321.269
320.775
320.282
319.79
319.299
318.81
318.322
317.837
317.355
316.876
316.4
315.929
322.752
322.255
321.759
321.263
320.767
320.272
319.778
319.285
318.793
318.303
317.816
317.331
316.85
316.374
315.902
322.751
322.253
321.755
321.257
320.759
320.262
319.765
319.27
318.775
318.282
317.791
317.303
316.82
316.341
315.87
322.75
322.25
321.75
321.25
320.75
320.251
319.752
319.253
318.755
318.259
317.764
317.272
316.784
316.303
315.83
322.749
322.247
321.745
321.243
320.741
320.239
319.737
319.236
318.734
318.233
317.734
317.236
316.742
316.255
315.78
322.748
322.244
321.74
321.236
320.732
320.228
319.723
319.218
318.713
318.207
317.701
317.196
316.692
316.194
315.711
322.747
322.241
321.735
321.229
320.723
320.216
319.709
319.201
318.691
318.181
317.669
317.155
316.637
316.119
315.608
315.602
315.216
314.832
314.45
314.07
313.692
313.317
312.944
312.573
312.206
311.841
311.479
311.12
310.765
310.413
310.065
309.72
309.379
309.042
308.708
308.378
308.052
307.729
307.409
307.093
306.781
306.471
306.164
305.86
305.559
305.26
304.964
304.67
304.378
304.088
303.799
303.512
303.227
302.944
302.662
302.381
302.101
301.823
301.546
301.27
300.996
300.722
300.45
300.179
299.908
299.639
299.37
299.102
298.835
298.569
298.302
298.037
297.771
297.505
297.24
296.974
296.708
296.442
296.176
295.908
295.641
295.373
295.103
294.834
294.563
294.291
294.019
293.745
293.47
293.194
292.917
292.638
292.358
292.076
291.793
291.508
291.222
290.934
290.644
290.352
290.058
289.762
289.464
289.164
288.862
315.6
315.213
314.829
314.447
314.067
313.689
313.313
312.94
312.569
312.201
311.836
311.474
311.116
310.76
310.408
310.06
309.715
309.374
309.036
308.703
308.373
308.046
307.724
307.404
307.089
306.776
306.467
306.16
305.857
305.556
305.257
304.961
304.667
304.375
304.085
303.797
303.51
303.225
302.942
302.659
302.379
302.099
301.821
301.544
301.269
300.994
300.721
300.448
300.177
299.907
299.637
299.369
299.101
298.834
298.568
298.302
298.036
297.771
297.505
297.24
296.974
296.709
296.443
296.176
295.909
295.642
295.373
295.105
294.835
294.564
294.293
294.02
293.747
293.472
293.196
292.919
292.64
292.36
292.078
291.795
291.511
291.224
290.936
290.646
290.354
290.061
289.765
289.467
289.167
288.865
315.594
315.208
314.823
314.441
314.06
313.682
313.306
312.932
312.561
312.193
311.827
311.465
311.106
310.75
310.398
310.049
309.704
309.363
309.025
308.692
308.362
308.036
307.713
307.395
307.079
306.767
306.458
306.152
305.849
305.548
305.25
304.954
304.661
304.369
304.079
303.791
303.505
303.22
302.937
302.655
302.375
302.095
301.817
301.541
301.265
300.99
300.717
300.445
300.174
299.904
299.635
299.367
299.099
298.832
298.566
298.301
298.035
297.77
297.505
297.24
296.975
296.709
296.443
296.177
295.911
295.643
295.375
295.107
294.837
294.567
294.295
294.023
293.75
293.475
293.199
292.922
292.644
292.364
292.083
291.8
291.515
291.229
290.941
290.651
290.36
290.066
289.77
289.473
289.173
288.871
315.586
315.199
314.814
314.431
314.051
313.672
313.295
312.921
312.549
312.18
311.814
311.451
311.091
310.735
310.382
310.033
309.688
309.347
309.009
308.676
308.346
308.02
307.698
307.38
307.065
306.753
306.445
306.139
305.837
305.537
305.24
304.945
304.652
304.361
304.071
303.784
303.498
303.214
302.931
302.649
302.369
302.09
301.812
301.535
301.259
300.985
300.712
300.44
300.169
299.899
299.631
299.363
299.096
298.83
298.564
298.299
298.034
297.769
297.505
297.24
296.975
296.71
296.445
296.179
295.913
295.646
295.378
295.11
294.84
294.57
294.299
294.027
293.754
293.48
293.204
292.928
292.65
292.37
292.089
291.806
291.522
291.236
290.949
290.659
290.368
290.074
289.779
289.481
289.181
288.88
315.574
315.188
314.802
314.419
314.038
313.659
313.281
312.906
312.534
312.163
311.796
311.432
311.071
310.714
310.361
310.012
309.666
309.325
308.987
308.654
308.324
307.999
307.677
307.359
307.045
306.735
306.427
306.123
305.821
305.522
305.226
304.932
304.64
304.349
304.061
303.774
303.488
303.205
302.922
302.641
302.361
302.082
301.804
301.528
301.252
300.978
300.705
300.433
300.163
299.893
299.625
299.358
299.091
298.826
298.561
298.296
298.032
297.768
297.504
297.24
296.976
296.712
296.447
296.181
295.915
295.649
295.382
295.114
294.845
294.575
294.305
294.033
293.76
293.486
293.211
292.935
292.657
292.378
292.098
291.815
291.532
291.246
290.959
290.67
290.379
290.086
289.79
289.493
289.193
288.891
315.561
315.173
314.788
314.404
314.023
313.643
313.264
312.888
312.514
312.142
311.774
311.408
311.047
310.689
310.334
309.984
309.638
309.297
308.959
308.626
308.297
307.972
307.651
307.334
307.021
306.711
306.405
306.102
305.802
305.504
305.209
304.916
304.625
304.335
304.048
303.761
303.477
303.193
302.911
302.631
302.351
302.072
301.795
301.518
301.243
300.969
300.696
300.424
300.154
299.885
299.618
299.351
299.085
298.821
298.557
298.293
298.03
297.767
297.504
297.241
296.977
296.713
296.449
296.184
295.919
295.653
295.386
295.119
294.85
294.581
294.311
294.04
293.768
293.494
293.22
292.944
292.667
292.388
292.108
291.827
291.543
291.258
290.972
290.683
290.392
290.1
289.805
289.508
289.208
288.906
315.544
315.156
314.771
314.387
314.005
313.624
313.244
312.866
312.49
312.117
311.747
311.379
311.016
310.657
310.302
309.951
309.605
309.263
308.925
308.592
308.263
307.939
307.619
307.303
306.991
306.683
306.378
306.077
305.778
305.482
305.188
304.897
304.607
304.319
304.032
303.747
303.463
303.18
302.899
302.619
302.339
302.061
301.784
301.507
301.232
300.958
300.685
300.414
300.144
299.875
299.608
299.343
299.078
298.815
298.552
298.289
298.027
297.765
297.503
297.241
296.979
296.715
296.452
296.188
295.923
295.658
295.392
295.125
294.857
294.589
294.319
294.048
293.777
293.504
293.23
292.955
292.678
292.401
292.121
291.84
291.557
291.273
290.987
290.699
290.409
290.117
289.823
289.526
289.227
288.925
315.524
315.137
314.751
314.367
313.985
313.603
313.222
312.842
312.463
312.087
311.714
311.345
310.98
310.619
310.263
309.912
309.565
309.222
308.884
308.551
308.223
307.899
307.581
307.266
306.956
306.65
306.347
306.047
305.751
305.457
305.165
304.875
304.587
304.3
304.015
303.73
303.447
303.165
302.885
302.605
302.326
302.048
301.771
301.495
301.219
300.945
300.672
300.4
300.131
299.863
299.597
299.333
299.07
298.807
298.546
298.285
298.024
297.764
297.503
297.242
296.98
296.718
296.455
296.192
295.928
295.663
295.398
295.132
294.865
294.597
294.328
294.058
293.787
293.515
293.242
292.967
292.692
292.415
292.136
291.856
291.574
291.29
291.004
290.717
290.428
290.137
289.844
289.548
289.249
288.947
315.501
315.115
314.73
314.346
313.963
313.58
313.197
312.815
312.433
312.053
311.677
311.305
310.937
310.575
310.218
309.865
309.518
309.175
308.837
308.503
308.176
307.853
307.536
307.224
306.916
306.612
306.311
306.014
305.719
305.428
305.138
304.851
304.565
304.28
303.995
303.712
303.43
303.148
302.869
302.59
302.312
302.034
301.757
301.481
301.204
300.929
300.656
300.385
300.115
299.849
299.584
299.321
299.059
298.799
298.539
298.279
298.021
297.762
297.503
297.244
296.983
296.722
296.46
296.197
295.933
295.67
295.406
295.141
294.875
294.608
294.339
294.069
293.799
293.527
293.255
292.982
292.707
292.431
292.154
291.874
291.592
291.309
291.025
290.738
290.451
290.161
289.869
289.574
289.275
288.973
315.475
315.09
314.706
314.324
313.942
313.558
313.173
312.786
312.4
312.015
311.633
311.257
310.887
310.523
310.165
309.812
309.464
309.121
308.782
308.448
308.121
307.799
307.484
307.174
306.869
306.568
306.27
305.976
305.684
305.395
305.109
304.825
304.541
304.258
303.975
303.692
303.41
303.13
302.851
302.573
302.297
302.02
301.743
301.465
301.188
300.912
300.637
300.365
300.096
299.831
299.568
299.307
299.048
298.789
298.531
298.273
298.017
297.761
297.504
297.246
296.987
296.727
296.465
296.202
295.939
295.677
295.414
295.151
294.886
294.62
294.351
294.082
293.811
293.54
293.269
292.998
292.725
292.451
292.174
291.895
291.613
291.331
291.047
290.762
290.476
290.188
289.898
289.604
289.306
289.005
315.444
315.061
314.681
314.302
313.922
313.538
313.15
312.758
312.364
311.971
311.583
311.201
310.827
310.462
310.105
309.753
309.405
309.06
308.719
308.384
308.056
307.736
307.424
307.118
306.818
306.52
306.225
305.933
305.644
305.359
305.077
304.797
304.517
304.236
303.953
303.671
303.389
303.109
302.831
302.556
302.281
302.006
301.729
301.45
301.17
300.891
300.614
300.341
300.073
299.809
299.549
299.292
299.035
298.778
298.521
298.266
298.013
297.76
297.506
297.251
296.994
296.733
296.471
296.208
295.945
295.684
295.423
295.162
294.899
294.634
294.366
294.096
293.824
293.554
293.284
293.015
292.745
292.473
292.197
291.918
291.637
291.353
291.07
290.787
290.504
290.219
289.931
289.64
289.343
289.042
315.408
315.029
314.655
314.282
313.907
313.524
313.132
312.732
312.327
311.922
311.522
311.132
310.755
310.39
310.036
309.688
309.34
308.993
308.648
308.31
307.981
307.662
307.354
307.055
306.761
306.468
306.176
305.885
305.599
305.318
305.043
304.769
304.494
304.215
303.932
303.648
303.364
303.084
302.808
302.537
302.267
301.994
301.717
301.436
301.152
300.867
300.586
300.31
300.043
299.782
299.527
299.275
299.021
298.766
298.51
298.257
298.007
297.759
297.511
297.26
297.003
296.742
296.478
296.212
295.949
295.689
295.433
295.177
294.917
294.652
294.383
294.111
293.837
293.566
293.298
293.033
292.769
292.5
292.226
291.946
291.662
291.376
291.093
290.812
290.533
290.254
289.971
289.682
289.387
289.087
315.362
314.992
314.625
314.266
313.903
313.522
313.127
312.713
312.292
311.863
311.448
311.045
310.666
310.303
309.96
309.621
309.274
308.924
308.568
308.223
307.889
307.573
307.271
306.985
306.703
306.415
306.124
305.83
305.546
305.27
305.006
304.745
304.475
304.199
303.914
303.625
303.334
303.052
302.778
302.517
302.257
301.989
301.713
301.425
301.134
300.837
300.548
300.268
300.002
299.746
299.502
299.259
299.009
298.755
298.496
298.243
297.997
297.759
297.522
297.275
297.02
296.755
296.486
296.213
295.948
295.69
295.442
295.196
294.94
294.678
294.404
294.127
293.846
293.573
293.307
293.052
292.798
292.534
292.262
291.979
291.69
291.397
291.111
290.832
290.564
290.296
290.018
289.733
289.438
289.14
315.3
314.952
314.583
314.257
313.926
313.54
313.149
312.705
312.267
311.785
311.355
310.925
310.552
310.188
309.876
309.568
309.214
308.861
308.471
308.121
307.77
307.464
307.165
306.909
306.655
306.365
306.078
305.762
305.48
305.203
304.966
304.732
304.465
304.198
303.899
303.607
303.289
303.007
302.731
302.494
302.26
301.993
301.724
301.421
301.123
300.794
300.5
300.205
299.947
299.693
299.474
299.255
299.003
298.751
298.472
298.222
297.973
297.759
297.545
297.3
297.053
296.774
296.501
296.202
295.936
295.674
295.45
295.228
294.974
294.718
294.431
294.15
293.842
293.569
293.3
293.069
292.841
292.579
292.315
292.018
291.726
291.405
291.12
290.837
290.594
290.353
290.076
289.799
289.492
289.205
315.203
314.94
314.478
314.254
314.029
313.565
313.248
312.686
312.308
311.631
311.261
310.724
310.425
309.997
309.788
309.579
309.151
308.854
308.316
308.019
307.588
307.345
306.998
306.828
306.658
306.311
306.072
305.643
305.409
305.079
304.92
304.766
304.455
304.243
303.874
303.627
303.191
302.956
302.626
302.467
302.311
301.999
301.785
301.409
301.155
300.702
300.452
300.09
299.885
299.59
299.445
299.298
298.996
298.786
298.405
298.197
297.9
297.756
297.615
297.328
297.131
296.785
296.553
296.142
295.919
295.605
295.454
295.307
295.009
294.805
294.449
294.21
293.788
293.56
293.238
293.083
292.932
292.627
292.417
292.05
291.803
291.363
291.124
290.785
290.622
290.46
290.132
289.909
289.516
289.297
288.528
288.161
287.79
287.417
287.042
286.664
286.284
285.902
285.519
285.134
284.747
284.36
283.972
283.583
283.195
288.531
288.163
287.793
287.42
287.044
286.666
286.286
285.904
285.52
285.135
284.748
284.361
283.973
283.584
283.195
288.536
288.169
287.798
287.425
287.049
286.67
286.29
285.907
285.523
285.137
284.75
284.362
283.974
283.584
283.195
288.545
288.177
287.806
287.432
287.055
286.676
286.295
285.912
285.527
285.141
284.753
284.365
283.975
283.585
283.195
288.557
288.188
287.817
287.442
287.065
286.685
286.303
285.919
285.533
285.146
284.757
284.368
283.977
283.587
283.196
288.571
288.202
287.83
287.455
287.076
286.696
286.312
285.927
285.54
285.152
284.762
284.371
283.98
283.588
283.196
288.59
288.22
287.847
287.47
287.091
286.708
286.324
285.937
285.549
285.159
284.768
284.376
283.983
283.59
283.197
288.612
288.241
287.867
287.489
287.108
286.724
286.337
285.949
285.559
285.167
284.775
284.381
283.987
283.592
283.197
288.638
288.267
287.891
287.511
287.128
286.741
286.353
285.962
285.57
285.177
284.782
284.387
283.991
283.595
283.198
288.669
288.296
287.918
287.536
287.15
286.761
286.37
285.977
285.583
285.187
284.79
284.393
283.996
283.597
283.199
288.706
288.331
287.951
287.565
287.176
286.783
286.389
285.993
285.596
285.198
284.799
284.4
284
283.6
283.2
288.75
288.373
287.988
287.598
287.204
286.808
286.41
286.011
285.611
285.21
284.809
284.407
284.006
283.603
283.201
288.803
288.421
288.03
287.634
287.234
286.833
286.432
286.029
285.626
285.223
284.819
284.415
284.011
283.607
283.202
288.871
288.48
288.078
287.673
287.266
286.86
286.454
286.048
285.642
285.235
284.829
284.423
284.016
283.61
283.203
288.964
288.549
288.129
287.712
287.299
286.887
286.476
286.066
285.657
285.248
284.839
284.431
284.022
283.613
283.204
322.746
322.239
321.731
321.223
320.715
320.206
319.696
319.185
318.673
318.159
317.641
317.119
316.589
316.042
315.451
322.746
322.237
321.728
321.218
320.708
320.198
319.686
319.173
318.658
318.14
317.619
317.092
316.556
316.002
315.413
322.745
322.235
321.724
321.214
320.702
320.19
319.676
319.161
318.644
318.125
317.601
317.072
316.535
315.988
315.43
322.744
322.233
321.721
321.209
320.697
320.183
319.668
319.152
318.633
318.112
317.587
317.057
316.522
315.98
315.434
322.744
322.231
321.719
321.206
320.692
320.177
319.661
319.143
318.623
318.101
317.575
317.046
316.513
315.976
315.437
322.743
322.23
321.716
321.202
320.687
320.172
319.655
319.136
318.615
318.092
317.567
317.038
316.506
315.972
315.437
322.743
322.229
321.714
321.199
320.684
320.167
319.649
319.13
318.609
318.086
317.56
317.032
316.502
315.969
315.436
322.743
322.228
321.713
321.197
320.681
320.164
319.645
319.126
318.604
318.081
317.556
317.028
316.499
315.967
315.434
322.742
322.227
321.711
321.195
320.679
320.161
319.642
319.122
318.601
318.077
317.552
317.026
316.497
315.966
315.434
322.742
322.226
321.71
321.194
320.677
320.159
319.64
319.12
318.598
318.075
317.551
317.024
316.496
315.966
315.435
322.742
322.226
321.71
321.193
320.676
320.158
319.638
319.118
318.597
318.074
317.55
317.024
316.497
315.968
315.437
322.742
322.226
321.709
321.192
320.675
320.157
319.638
319.118
318.597
318.074
317.55
317.025
316.498
315.97
315.441
322.742
322.226
321.709
321.192
320.675
320.157
319.638
319.118
318.597
318.075
317.552
317.027
316.501
315.973
315.444
322.742
322.226
321.709
321.192
320.675
320.157
319.639
319.119
318.598
318.077
317.554
317.03
316.504
315.978
315.451
322.742
322.226
321.71
321.193
320.676
320.158
319.64
319.121
318.601
318.079
317.557
317.033
316.509
315.982
315.454
322.742
322.226
321.71
321.194
320.677
320.16
319.642
319.123
318.603
318.083
317.561
317.038
316.514
315.988
315.459
322.742
322.227
321.711
321.195
320.679
320.162
319.644
319.126
318.607
318.087
317.566
317.044
316.52
315.996
315.47
322.742
322.227
321.712
321.196
320.68
320.164
319.647
319.129
318.611
318.092
317.571
317.05
316.528
316.004
315.478
322.743
322.228
321.713
321.198
320.683
320.167
319.65
319.133
318.616
318.097
317.578
317.057
316.536
316.015
315.494
322.743
322.229
321.715
321.2
320.685
320.17
319.654
319.138
318.621
318.103
317.585
317.065
316.545
316.025
315.503
322.743
322.23
321.716
321.202
320.688
320.173
319.658
319.143
318.627
318.11
317.592
317.074
316.555
316.035
315.518
322.744
322.231
321.718
321.205
320.691
320.177
319.663
319.148
318.633
318.117
317.6
317.082
316.564
316.045
315.525
322.744
322.232
321.72
321.207
320.694
320.181
319.668
319.154
318.639
318.124
317.608
317.092
316.574
316.055
315.532
322.744
322.233
321.722
321.21
320.698
320.186
319.673
319.16
318.647
318.132
317.617
317.102
316.585
316.067
315.548
322.745
322.234
321.724
321.213
320.702
320.191
319.679
319.167
318.654
318.141
317.627
317.112
316.597
316.079
315.559
322.745
322.236
321.726
321.216
320.706
320.196
319.685
319.174
318.662
318.15
317.637
317.124
316.61
316.094
315.579
322.746
322.237
321.728
321.219
320.71
320.201
319.691
319.181
318.67
318.159
317.648
317.136
316.623
316.11
315.593
322.746
322.238
321.731
321.223
320.715
320.206
319.697
319.188
318.679
318.169
317.659
317.148
316.637
316.127
315.619
322.747
322.24
321.733
321.226
320.719
320.212
319.704
319.196
318.688
318.179
317.67
317.161
316.651
316.142
315.633
322.747
322.242
321.736
321.23
320.724
320.218
319.711
319.204
318.697
318.19
317.682
317.173
316.665
316.157
315.653
322.748
322.243
321.739
321.234
320.729
320.224
319.718
319.213
318.707
318.2
317.693
317.186
316.679
316.171
315.663
322.748
322.245
321.741
321.238
320.734
320.23
319.726
319.221
318.716
318.211
317.705
317.199
316.692
316.184
315.672
322.749
322.247
321.744
321.242
320.739
320.236
319.733
319.23
318.726
318.222
317.718
317.213
316.707
316.2
315.692
322.749
322.248
321.747
321.246
320.745
320.243
319.741
319.239
318.736
318.234
317.73
317.227
316.722
316.216
315.706
322.75
322.25
321.75
321.25
320.75
320.25
319.749
319.248
318.747
318.245
317.744
317.241
316.738
316.234
315.731
322.751
322.252
321.753
321.255
320.756
320.257
319.757
319.258
318.758
318.258
317.757
317.256
316.755
316.253
315.748
322.751
322.254
321.757
321.259
320.761
320.264
319.766
319.267
318.769
318.27
317.771
317.272
316.772
316.274
315.778
322.752
322.256
321.76
321.264
320.767
320.271
319.774
319.277
318.78
318.282
317.785
317.287
316.789
316.292
315.795
322.753
322.258
321.763
321.268
320.773
320.278
319.783
319.287
318.791
318.295
317.799
317.302
316.806
316.31
315.819
322.753
322.26
321.767
321.273
320.779
320.286
319.792
319.297
318.803
318.308
317.813
317.318
316.822
316.326
315.83
322.754
322.262
321.77
321.278
320.786
320.293
319.801
319.308
318.815
318.321
317.827
317.333
316.838
316.342
315.841
322.755
322.264
321.774
321.283
320.792
320.301
319.81
319.318
318.827
318.335
317.842
317.349
316.855
316.36
315.865
322.755
322.266
321.777
321.288
320.799
320.309
319.819
319.329
318.839
318.348
317.857
317.366
316.873
316.379
315.88
322.756
322.269
321.781
321.293
320.805
320.317
319.829
319.34
318.852
318.362
317.873
317.383
316.892
316.4
315.909
322.757
322.271
321.785
321.298
320.812
320.325
319.839
319.352
318.864
318.377
317.889
317.4
316.912
316.422
315.929
322.758
322.273
321.789
321.304
320.819
320.334
319.849
319.363
318.877
318.391
317.905
317.418
316.932
316.446
315.964
322.759
322.275
321.792
321.309
320.826
320.342
319.859
319.375
318.891
318.406
317.921
317.436
316.952
316.467
315.983
322.759
322.278
321.796
321.315
320.833
320.351
319.869
319.387
318.904
318.421
317.938
317.454
316.971
316.489
316.011
322.76
322.28
321.8
321.32
320.84
320.36
319.88
319.399
318.918
318.436
317.955
317.472
316.99
316.507
316.024
322.761
322.283
321.805
321.326
320.848
320.369
319.89
319.411
318.932
318.452
317.972
317.491
317.009
316.525
316.037
322.762
322.285
321.809
321.332
320.855
320.378
319.901
319.424
318.946
318.468
317.989
317.51
317.029
316.547
316.065
322.763
322.288
321.813
321.338
320.863
320.388
319.912
319.437
318.961
318.484
318.007
317.529
317.05
316.569
316.084
322.764
322.29
321.817
321.344
320.871
320.397
319.924
319.45
318.975
318.501
318.025
317.549
317.073
316.595
316.118
322.764
322.293
321.822
321.35
320.879
320.407
319.935
319.463
318.99
318.518
318.044
317.57
317.096
316.621
316.141
322.765
322.296
321.826
321.357
320.887
320.417
319.947
319.477
319.006
318.535
318.063
317.592
317.12
316.649
316.183
322.766
322.299
321.831
321.363
320.895
320.427
319.959
319.49
319.022
318.552
318.083
317.613
317.144
316.675
316.206
322.767
322.301
321.836
321.37
320.904
320.437
319.971
319.504
319.037
318.57
318.103
317.635
317.167
316.7
316.239
322.768
322.304
321.84
321.376
320.912
320.448
319.983
319.519
319.054
318.588
318.122
317.656
317.189
316.722
316.255
322.769
322.307
321.845
321.383
320.921
320.458
319.996
319.533
319.07
318.606
318.142
317.678
317.212
316.744
316.271
322.77
322.31
321.85
321.39
320.93
320.469
320.009
319.548
319.087
318.625
318.163
317.7
317.236
316.771
316.304
322.771
322.313
321.855
321.397
320.939
320.48
320.022
319.563
319.104
318.644
318.184
317.723
317.261
316.797
316.327
322.772
322.316
321.86
321.404
320.948
320.491
320.035
319.578
319.121
318.664
318.206
317.747
317.288
316.828
316.368
322.773
322.319
321.865
321.411
320.957
320.502
320.048
319.593
319.138
318.683
318.228
317.772
317.316
316.858
316.396
322.774
322.322
321.87
321.418
320.966
320.514
320.061
319.609
319.156
318.703
318.25
317.797
317.344
316.893
316.447
322.775
322.325
321.875
321.425
320.975
320.525
320.075
319.624
319.174
318.723
318.273
317.822
317.372
316.923
316.474
322.776
322.328
321.88
321.432
320.984
320.536
320.088
319.64
319.192
318.744
318.295
317.847
317.399
316.953
316.514
322.777
322.331
321.886
321.44
320.994
320.548
320.102
319.656
319.21
318.764
318.318
317.871
317.425
316.979
316.533
322.778
322.334
321.891
321.447
321.003
320.56
320.116
319.672
319.228
318.784
318.34
317.896
317.451
317.004
316.551
322.779
322.338
321.896
321.454
321.013
320.571
320.13
319.688
319.246
318.805
318.363
317.921
317.478
317.034
316.589
322.78
322.341
321.901
321.462
321.022
320.583
320.143
319.704
319.265
318.825
318.386
317.946
317.506
317.063
316.615
322.781
322.344
321.906
321.469
321.032
320.594
320.157
319.72
319.283
318.846
318.409
317.972
317.535
317.098
316.661
322.782
322.347
321.912
321.476
321.041
320.606
320.171
319.736
319.301
318.867
318.433
317.999
317.565
317.131
316.692
322.783
322.35
321.917
321.484
321.05
320.617
320.185
319.752
319.32
318.888
318.456
318.025
317.595
317.167
316.747
322.784
322.353
321.922
321.491
321.06
320.629
320.198
319.768
319.338
318.908
318.479
318.05
317.624
317.199
316.775
322.785
322.356
321.927
321.498
321.069
320.64
320.212
319.783
319.355
318.928
318.501
318.075
317.651
317.229
316.816
322.786
322.359
321.932
321.505
321.078
320.651
320.225
319.799
319.373
318.947
318.523
318.099
317.676
317.254
316.835
322.787
322.362
321.937
321.512
321.087
320.662
320.238
319.814
319.39
318.966
318.544
318.122
317.7
317.278
316.852
322.788
322.365
321.942
321.519
321.096
320.673
320.251
319.829
319.407
318.985
318.564
318.144
317.724
317.305
316.888
322.789
322.368
321.947
321.526
321.105
320.684
320.264
319.843
319.423
319.004
318.585
318.166
317.748
317.331
316.91
322.79
322.371
321.952
321.533
321.114
320.695
320.276
319.858
319.439
319.022
318.604
318.188
317.772
317.358
316.948
322.791
322.374
321.957
321.54
321.123
320.706
320.289
319.872
319.455
319.039
318.624
318.209
317.796
317.384
316.971
322.792
322.377
321.962
321.547
321.131
320.716
320.301
319.886
319.471
319.056
318.642
318.229
317.818
317.41
317.009
322.793
322.38
321.967
321.553
321.14
320.727
320.313
319.9
319.486
319.073
318.661
318.249
317.838
317.431
317.027
322.794
322.383
321.972
321.56
321.149
320.737
320.325
319.914
319.502
319.09
318.678
318.267
317.857
317.449
317.049
322.795
322.386
321.976
321.567
321.157
320.748
320.338
319.928
319.517
319.107
318.695
318.284
317.873
317.463
317.058
322.796
322.389
321.981
321.574
321.166
320.759
320.351
319.942
319.533
319.123
318.713
318.301
317.888
317.475
317.063
322.797
322.392
321.986
321.581
321.175
320.77
320.363
319.957
319.549
319.141
318.731
318.319
317.904
317.485
317.066
322.798
322.395
321.992
321.588
321.184
320.781
320.377
319.972
319.567
319.16
318.751
318.339
317.921
317.496
317.065
322.799
322.398
321.997
321.595
321.194
320.792
320.39
319.988
319.585
319.18
318.773
318.362
317.944
317.512
317.051
322.8
322.401
322.002
321.603
321.203
320.804
320.404
320.004
319.604
319.202
318.798
318.391
317.977
317.549
317.083
289.097
288.615
288.173
287.746
287.326
286.91
286.496
286.083
285.671
285.26
284.849
284.438
284.027
283.616
283.205
289.127
288.649
288.203
287.772
287.349
286.929
286.513
286.098
285.684
285.27
284.857
284.444
284.032
283.619
283.206
289.105
288.66
288.223
287.792
287.368
286.947
286.529
286.112
285.696
285.28
284.865
284.451
284.036
283.622
283.207
289.1
288.668
288.237
287.809
287.385
286.963
286.543
286.125
285.707
285.29
284.873
284.457
284.04
283.624
283.208
289.1
288.674
288.248
287.823
287.4
286.978
286.557
286.137
285.718
285.299
284.881
284.463
284.045
283.627
283.209
289.098
288.68
288.259
287.836
287.414
286.992
286.57
286.149
285.729
285.308
284.889
284.469
284.049
283.629
283.21
289.102
288.689
288.27
287.849
287.427
287.005
286.583
286.161
285.739
285.317
284.896
284.475
284.053
283.632
283.211
289.115
288.701
288.284
287.863
287.441
287.019
286.596
286.173
285.749
285.326
284.903
284.48
284.057
283.634
283.211
289.128
288.717
288.299
287.878
287.456
287.032
286.608
286.184
285.76
285.335
284.911
284.486
284.061
283.637
283.212
289.156
288.736
288.316
287.894
287.471
287.046
286.621
286.196
285.77
285.344
284.918
284.492
284.066
283.639
283.213
289.174
288.756
288.334
287.911
287.486
287.061
286.634
286.207
285.78
285.353
284.925
284.498
284.07
283.642
283.214
289.205
288.778
288.354
287.928
287.502
287.075
286.648
286.219
285.791
285.362
284.933
284.503
284.074
283.644
283.215
289.223
288.799
288.373
287.947
287.519
287.091
286.661
286.232
285.802
285.371
284.94
284.509
284.078
283.647
283.216
289.253
288.822
288.394
287.965
287.536
287.106
286.676
286.244
285.813
285.38
284.948
284.515
284.082
283.649
283.217
289.267
288.842
288.414
287.985
287.554
287.123
286.69
286.257
285.824
285.39
284.956
284.521
284.087
283.652
283.217
289.283
288.863
288.436
288.005
287.573
287.139
286.705
286.27
285.835
285.4
284.964
284.527
284.091
283.655
283.218
289.319
288.89
288.459
288.027
287.592
287.157
286.721
286.284
285.847
285.409
284.972
284.534
284.096
283.657
283.219
289.345
288.918
288.485
288.049
287.612
287.175
286.736
286.298
285.859
285.419
284.98
284.54
284.1
283.66
283.22
289.393
288.95
288.511
288.072
287.633
287.193
286.752
286.312
285.871
285.43
284.988
284.546
284.105
283.663
283.221
289.421
288.98
288.538
288.096
287.654
287.211
286.769
286.326
285.883
285.44
284.996
284.553
284.109
283.666
283.222
289.463
289.011
288.564
288.119
287.674
287.23
286.785
286.34
285.895
285.45
285.005
284.56
284.114
283.668
283.223
289.486
289.038
288.59
288.142
287.695
287.249
286.802
286.355
285.908
285.461
285.013
284.566
284.119
283.671
283.224
289.521
289.065
288.614
288.165
287.716
287.267
286.818
286.369
285.92
285.471
285.022
284.573
284.123
283.674
283.225
289.538
289.088
288.638
288.187
287.737
287.286
286.835
286.384
285.933
285.482
285.031
284.579
284.128
283.677
283.226
289.555
289.112
288.662
288.21
287.757
287.304
286.851
286.398
285.945
285.492
285.039
284.586
284.133
283.68
283.227
289.593
289.14
288.687
288.233
287.778
287.323
286.868
286.413
285.958
285.503
285.048
284.593
284.138
283.683
283.228
289.618
289.168
288.713
288.256
287.799
287.342
286.885
286.428
285.971
285.514
285.057
284.599
284.142
283.685
283.228
289.666
289.2
288.74
288.28
287.82
287.361
286.901
286.442
285.983
285.524
285.065
284.606
284.147
283.688
283.229
289.692
289.229
288.766
288.303
287.841
287.379
286.918
286.457
285.996
285.535
285.074
284.613
284.152
283.691
283.23
289.731
289.258
288.791
288.326
287.861
287.397
286.934
286.471
286.008
285.545
285.082
284.619
284.157
283.694
283.231
289.753
289.284
288.815
288.348
287.881
287.416
286.95
286.485
286.02
285.555
285.091
284.626
284.161
283.697
283.232
289.785
289.308
288.838
288.369
287.901
287.433
286.966
286.499
286.032
285.566
285.099
284.633
284.166
283.7
283.233
289.8
289.33
288.859
288.39
287.92
287.451
286.982
286.513
286.044
285.576
285.107
284.639
284.171
283.702
283.234
289.815
289.35
288.881
288.41
287.939
287.468
286.997
286.527
286.056
285.586
285.116
284.646
284.175
283.705
283.235
289.847
289.375
288.903
288.431
287.958
287.485
287.013
286.541
286.068
285.596
285.124
284.652
284.18
283.708
283.236
289.869
289.399
288.926
288.451
287.977
287.503
287.028
286.554
286.08
285.606
285.132
284.658
284.185
283.711
283.237
289.909
289.427
288.949
288.472