/*--------------------------------*- C++ -*----------------------------------*\
| =========                 |                                                 |
| \\      /  F ield         | OpenFOAM: The Open Source CFD Toolbox           |
|  \\    /   O peration     | Version:  5.x                                   |
|   \\  /    A nd           | Web:      www.OpenFOAM.org                      |
|    \\/     M anipulation  |                                                 |
\*---------------------------------------------------------------------------*/
FoamFile
{
    version     2.0;
    format      ascii;
    class       volScalarField;
    location    "3";
    object      gradTx;
}
// * * * * * * * * * * * * * * * * * * * * * * * * * * * * * * * * * * * * * //

dimensions      [0 -1 0 1 0 0 0];

internalField   nonuniform List<scalar> 
6300
(
-48.0523
-48.0277
-47.9785
-47.9045
-47.8055
-47.6814
-47.532
-47.3574
-47.158
-46.9344
-46.6878
-46.4195
-46.1312
-45.825
-45.5024
-48.0768
-48.0523
-48.0033
-47.9295
-47.8307
-47.7066
-47.5571
-47.3822
-47.1821
-46.9575
-46.7095
-46.4394
-46.1493
-45.8413
-45.5174
-48.1258
-48.1015
-48.0528
-47.9795
-47.8811
-47.7573
-47.6077
-47.4322
-47.2308
-47.0041
-46.7531
-46.4795
-46.1854
-45.8735
-45.5466
-48.199
-48.175
-48.127
-48.0545
-47.9569
-47.8337
-47.6842
-47.508
-47.3049
-47.075
-46.8195
-46.54
-46.2393
-45.9209
-45.5887
-48.2961
-48.2727
-48.2257
-48.1545
-48.0583
-47.9363
-47.7875
-47.6108
-47.4056
-47.1717
-46.9097
-46.6217
-46.3109
-45.9821
-45.641
-48.4165
-48.394
-48.3485
-48.2794
-48.1856
-48.0658
-47.9185
-47.7421
-47.535
-47.2963
-47.0262
-46.7262
-46.4005
-46.0555
-45.6999
-48.5595
-48.5381
-48.4949
-48.4289
-48.3388
-48.2228
-48.0787
-47.904
-47.696
-47.4525
-47.1724
-46.8566
-46.5094
-46.1397
-45.7602
-48.7239
-48.7041
-48.664
-48.6025
-48.5179
-48.4079
-48.2696
-48.0991
-47.8925
-47.6453
-47.3542
-47.0182
-46.641
-46.2336
-45.815
-48.908
-48.8904
-48.8544
-48.7991
-48.7223
-48.6213
-48.4924
-48.3305
-48.1295
-47.882
-47.5809
-47.221
-46.803
-46.3386
-45.8555
-49.1098
-49.0948
-49.0643
-49.017
-48.9508
-48.8627
-48.7482
-48.6011
-48.4128
-48.1723
-47.8665
-47.482
-47.0113
-46.4624
-45.8725
-49.3265
-49.3148
-49.2909
-49.2537
-49.2012
-49.1304
-49.0366
-48.9128
-48.7483
-48.528
-48.2306
-47.8293
-47.2978
-46.6273
-45.8595
-49.5548
-49.5469
-49.5309
-49.5057
-49.4699
-49.4211
-49.355
-49.2649
-49.1397
-48.9609
-48.6986
-48.3069
-47.7234
-46.8894
-45.8212
-49.7908
-49.7872
-49.7798
-49.7682
-49.7517
-49.7289
-49.6974
-49.6523
-49.5846
-49.4771
-49.296
-48.9761
-48.3995
-47.3857
-45.7967
-50.0305
-50.0312
-50.0328
-50.0355
-50.0396
-50.0455
-50.0532
-50.0621
-50.0695
-50.0671
-50.032
-49.9021
-49.5129
-48.4571
-45.955
-50.2693
-50.2742
-50.2846
-50.3013
-50.3257
-50.3601
-50.4077
-50.4733
-50.564
-50.6897
-50.8628
-51.0872
-51.2929
-50.9746
-47.2319
-45.1941
-44.903
-44.6019
-44.2903
-43.9672
-43.6315
-43.2815
-42.9162
-42.5343
-42.1354
-41.7195
-41.2875
-40.8406
-40.3808
-39.9103
-39.4319
-38.9482
-38.4622
-37.9769
-37.4952
-37.02
-36.5543
-36.1007
-35.6619
-35.2401
-34.8372
-34.4548
-34.0939
-33.7556
-33.44
-33.1473
-32.8771
-32.6289
-32.4019
-32.1951
-32.0074
-31.8377
-31.6847
-31.5475
-31.4249
-31.3159
-31.2195
-31.1348
-31.0612
-30.9983
-30.946
-30.9044
-30.8742
-30.856
-30.8508
-30.8597
-30.8836
-30.9233
-30.9796
-31.0528
-31.1432
-31.2505
-31.3746
-31.5148
-31.6703
-31.8401
-32.0234
-32.219
-32.4261
-32.6436
-32.8708
-33.1069
-33.3511
-33.6028
-33.8613
-34.126
-34.3964
-34.6721
-34.9528
-35.2381
-35.5281
-35.8223
-36.1207
-36.4229
-36.7288
-37.0382
-37.3507
-37.666
-37.9839
-38.3038
-38.6249
-38.9462
-39.2664
-39.5839
-39.8967
-45.2085
-44.9174
-44.6171
-44.3069
-43.9857
-43.6519
-43.3039
-42.9401
-42.559
-42.16
-41.7431
-41.309
-40.8594
-40.3962
-39.9221
-39.4396
-38.9518
-38.4616
-37.972
-37.486
-37.0067
-36.537
-36.0798
-35.6378
-35.2132
-34.808
-34.4239
-34.062
-33.723
-33.4074
-33.1151
-32.8458
-32.5988
-32.3732
-32.168
-31.9819
-31.8138
-31.6625
-31.5268
-31.4057
-31.2981
-31.2029
-31.1192
-31.0462
-30.9835
-30.9308
-30.8885
-30.8571
-30.8375
-30.8309
-30.8383
-30.861
-30.8997
-30.9554
-31.0283
-31.1188
-31.2267
-31.3516
-31.4929
-31.6497
-31.821
-32.0057
-32.2027
-32.411
-32.6297
-32.858
-33.0951
-33.3403
-33.5929
-33.8522
-34.1176
-34.3886
-34.6648
-34.9458
-35.2314
-35.5216
-35.8161
-36.1148
-36.4174
-36.7236
-37.0333
-37.3462
-37.6621
-37.9807
-38.3016
-38.6242
-38.9474
-39.27
-39.5901
-39.9059
-45.2362
-44.9453
-44.6466
-44.3394
-44.0223
-43.6931
-43.3494
-42.9889
-42.6096
-42.2105
-41.7914
-41.3533
-40.8979
-40.4278
-39.946
-39.4553
-38.9591
-38.4603
-37.9621
-37.4675
-36.9798
-36.502
-36.0374
-35.5888
-35.1586
-34.749
-34.3615
-33.9974
-33.6573
-33.3416
-33.0502
-32.7827
-32.5382
-32.3156
-32.1137
-31.9309
-31.7662
-31.6181
-31.4856
-31.3676
-31.2628
-31.1702
-31.0885
-31.0168
-30.9544
-30.9011
-30.8571
-30.8233
-30.8008
-30.791
-30.7954
-30.8154
-30.8522
-30.9065
-30.9789
-31.0696
-31.1785
-31.3051
-31.4487
-31.6083
-31.7826
-31.9703
-32.1701
-32.381
-32.6021
-32.8325
-33.0716
-33.3188
-33.5732
-33.8343
-34.1012
-34.3733
-34.6503
-34.9319
-35.218
-35.5086
-35.8037
-36.103
-36.4062
-36.7131
-37.0235
-37.337
-37.6538
-37.9737
-38.2965
-38.622
-38.949
-39.2764
-39.6021
-39.924
-45.2754
-44.9845
-44.6884
-44.3864
-44.0763
-43.7552
-43.4192
-43.0649
-42.689
-42.29
-41.8674
-41.4225
-40.9578
-40.4766
-39.9826
-39.4794
-38.9703
-38.4586
-37.9472
-37.4395
-36.9387
-36.4485
-35.9724
-35.5135
-35.0748
-34.6584
-34.2659
-33.8984
-33.5568
-33.2412
-32.9514
-32.6869
-32.4465
-32.2288
-32.032
-31.8545
-31.6948
-31.5517
-31.424
-31.3106
-31.2105
-31.122
-31.0438
-30.9744
-30.9127
-30.8583
-30.8116
-30.7735
-30.746
-30.7309
-30.7303
-30.7461
-30.7796
-30.8318
-30.9034
-30.9945
-31.105
-31.2344
-31.3818
-31.5459
-31.725
-31.9174
-32.1217
-32.3365
-32.5609
-32.7945
-33.0366
-33.2867
-33.5441
-33.8078
-34.077
-34.3508
-34.629
-34.9112
-35.1979
-35.4891
-35.7849
-36.0852
-36.3895
-36.6975
-37.0086
-37.3229
-37.6405
-37.9619
-38.2874
-38.617
-38.9498
-39.2846
-39.6192
-39.9508
-45.3226
-45.0311
-44.7389
-44.445
-44.1465
-43.8387
-43.5158
-43.1719
-42.8021
-42.4035
-41.9757
-41.5205
-41.0417
-40.5442
-40.0328
-39.5121
-38.9857
-38.4565
-37.9275
-37.4017
-36.8828
-36.3751
-35.8827
-35.4096
-34.9592
-34.5336
-34.1345
-33.7628
-33.4191
-33.1038
-32.8166
-32.5567
-32.3226
-32.1121
-31.9229
-31.7528
-31.6
-31.4634
-31.3421
-31.2352
-31.1416
-31.0595
-30.9868
-30.9212
-30.8608
-30.8049
-30.7537
-30.7091
-30.6736
-30.6502
-30.642
-30.6514
-30.6803
-30.7296
-30.7999
-30.8915
-31.0044
-31.138
-31.2911
-31.4619
-31.6483
-31.8477
-32.0581
-32.278
-32.5067
-32.7441
-32.9899
-33.2441
-33.5056
-33.7734
-34.0459
-34.3221
-34.6015
-34.8842
-35.1709
-35.4625
-35.7594
-36.0612
-36.3674
-36.6768
-36.9889
-37.3035
-37.6214
-37.9438
-38.272
-38.6066
-38.9474
-39.2927
-39.64
-39.9858
-45.3725
-45.079
-44.7919
-44.5103
-44.2302
-43.9441
-43.6427
-43.3162
-42.9567
-42.5594
-42.1236
-41.6526
-41.1528
-40.6318
-40.0968
-39.5534
-39.0053
-38.4546
-37.9033
-37.3542
-36.8112
-36.2798
-35.7655
-35.2736
-34.808
-34.3711
-33.964
-33.5871
-33.2411
-32.9264
-32.6429
-32.3898
-32.165
-31.9652
-31.7868
-31.6266
-31.4825
-31.3535
-31.2397
-31.141
-31.0565
-30.984
-30.9201
-30.8608
-30.803
-30.7449
-30.687
-30.6319
-30.5839
-30.548
-30.5286
-30.5292
-30.5518
-30.5973
-30.666
-30.7583
-30.8742
-31.0135
-31.1749
-31.3558
-31.5529
-31.7623
-31.9809
-32.207
-32.4402
-32.6813
-32.9314
-33.1907
-33.4582
-33.732
-34.0095
-34.2887
-34.5689
-34.851
-35.1368
-35.4282
-35.7263
-36.0309
-36.3401
-36.6521
-36.9651
-37.279
-37.5954
-37.917
-38.2468
-38.587
-38.9378
-39.2975
-39.6625
-40.0281
-45.4166
-45.1179
-44.8369
-44.5737
-44.3225
-44.0717
-43.8057
-43.5084
-43.1661
-42.7709
-42.3223
-41.8265
-41.2947
-40.7398
-40.173
-39.6017
-39.0287
-38.4538
-37.8764
-37.2981
-36.7234
-36.16
-35.6164
-35.1001
-34.616
-34.1661
-33.7501
-33.3675
-33.0185
-32.7042
-32.4258
-32.1827
-31.9718
-31.7878
-31.6248
-31.4776
-31.3434
-31.2223
-31.1161
-31.0268
-30.9546
-30.8965
-30.8469
-30.7988
-30.7459
-30.685
-30.6165
-30.5448
-30.4773
-30.4223
-30.3868
-30.3756
-30.3906
-30.4317
-30.4985
-30.5911
-30.7106
-30.8575
-31.0307
-31.2267
-31.4398
-31.6636
-31.893
-32.1257
-32.3622
-32.6057
-32.8596
-33.1253
-33.4018
-33.6851
-33.9703
-34.2536
-34.5336
-34.8124
-35.0944
-35.384
-35.6839
-35.9933
-36.3088
-36.6254
-36.9396
-37.2506
-37.5614
-37.8778
-38.2063
-38.5516
-38.915
-39.294
-39.6835
-40.0767
-45.4423
-45.1313
-44.8564
-44.62
-44.4144
-44.2211
-44.0141
-43.7654
-43.4516
-43.0596
-42.5891
-42.0524
-41.4701
-40.865
-40.2559
-39.6527
-39.0552
-38.4569
-37.8512
-37.2368
-36.6198
-36.0122
-35.4283
-34.8804
-34.3752
-33.9125
-33.4886
-33.0999
-32.7461
-32.4308
-32.1583
-31.9295
-31.7401
-31.5808
-31.4405
-31.3103
-31.1861
-31.07
-30.9684
-30.8884
-30.8327
-30.7973
-30.7721
-30.7439
-30.7009
-30.6364
-30.5508
-30.4521
-30.3532
-30.2687
-30.2103
-30.1846
-30.1921
-30.2295
-30.294
-30.3856
-30.5076
-30.6636
-30.8539
-31.0732
-31.3114
-31.5569
-31.8006
-32.0388
-32.2743
-32.5153
-32.7704
-33.0445
-33.3355
-33.6354
-33.9339
-34.2229
-34.4999
-34.7692
-35.0406
-35.3247
-35.6273
-35.9469
-36.2754
-36.602
-36.9183
-37.2221
-37.5189
-37.8208
-38.1412
-38.4898
-38.8691
-39.2749
-39.6988
-40.1305
-45.4306
-45.093
-44.8206
-44.6219
-44.4886
-44.3906
-44.2827
-44.1162
-43.8501
-43.4614
-42.9514
-42.3442
-41.6784
-40.9962
-40.3307
-39.6958
-39.0831
-38.4708
-37.8388
-37.1797
-36.5029
-35.8304
-35.1886
-34.5997
-34.0732
-33.6035
-33.1768
-32.7821
-32.4187
-32.0963
-31.828
-31.6201
-31.4655
-31.3466
-31.242
-31.1346
-31.0175
-30.897
-30.7902
-30.7153
-30.682
-30.6839
-30.7019
-30.7107
-30.6874
-30.6184
-30.5044
-30.3599
-30.2089
-30.0776
-29.9869
-29.9462
-29.9508
-29.9887
-30.0506
-30.1365
-30.2559
-30.4206
-30.6356
-30.8926
-31.1725
-31.453
-31.7163
-31.9556
-32.1787
-32.4044
-32.654
-32.9394
-33.2563
-33.5875
-33.9112
-34.2096
-34.4769
-34.7226
-34.9685
-35.2384
-35.546
-35.8874
-36.2443
-36.5931
-36.9148
-37.2031
-37.4688
-37.7367
-38.035
-38.3833
-38.7846
-39.2293
-39.7021
-40.1882
-45.3537
-44.961
-44.6786
-44.5299
-44.5121
-44.5743
-44.6359
-44.6104
-44.4251
-44.0382
-43.4539
-42.7203
-41.9107
-41.1036
-40.3614
-39.7073
-39.1105
-38.5135
-37.8655
-37.1482
-36.3802
-35.6045
-34.8731
-34.2294
-33.6899
-33.2329
-32.8193
-32.4197
-32.0325
-31.6843
-31.4112
-31.2341
-31.1399
-31.0922
-31.0481
-30.9733
-30.8539
-30.7049
-30.5662
-30.4829
-30.4807
-30.5478
-30.6452
-30.724
-30.7398
-30.6657
-30.5021
-30.2775
-30.0365
-29.8281
-29.692
-29.6429
-29.6615
-29.7135
-29.7729
-29.8395
-29.939
-30.1053
-30.357
-30.6789
-31.0328
-31.374
-31.6665
-31.896
-32.0791
-32.2592
-32.486
-32.7887
-33.1564
-33.5505
-33.9246
-34.2409
-34.4848
-34.6756
-34.8616
-35.0976
-35.4159
-35.8054
-36.2246
-36.6229
-36.959
-37.2164
-37.4154
-37.6083
-37.8564
-38.2
-38.6375
-39.1425
-39.6861
-40.2481
-45.1705
-44.6704
-44.3439
-44.2498
-44.4205
-44.7588
-45.1149
-45.335
-45.2905
-44.8995
-44.1716
-43.2062
-42.1393
-41.1177
-40.2657
-39.6364
-39.1384
-38.6297
-37.9924
-37.19
-36.2689
-35.3152
-34.4316
-33.7092
-33.1881
-32.7998
-32.4421
-32.0396
-31.5903
-31.1645
-30.8564
-30.7292
-30.7477
-30.8327
-30.8985
-30.8767
-30.7333
-30.4981
-30.2628
-30.1337
-30.1802
-30.3683
-30.6156
-30.8281
-30.9223
-30.8419
-30.5881
-30.2189
-29.8172
-29.4749
-29.2719
-29.2422
-29.3245
-29.4278
-29.4848
-29.4954
-29.5262
-29.6671
-29.9773
-30.4193
-30.9115
-31.365
-31.7077
-31.9032
-31.9836
-32.0469
-32.2087
-32.5445
-33.0181
-33.5424
-34.021
-34.3762
-34.5691
-34.6353
-34.6828
-34.8378
-35.1832
-35.6803
-36.2348
-36.742
-37.1162
-37.3136
-37.3702
-37.4004
-37.54
-37.8811
-38.3927
-39
-39.6435
-40.3058
-44.8167
-44.1297
-43.6746
-43.5884
-44.0875
-44.9178
-45.7898
-46.4408
-46.6551
-46.2459
-45.2313
-43.8386
-42.3029
-40.8877
-39.8493
-39.3767
-39.1819
-38.9314
-38.3573
-37.4029
-36.2048
-34.9251
-33.7582
-32.8994
-32.4954
-32.3229
-32.1295
-31.7274
-31.1148
-30.4754
-30.0414
-30.0147
-30.2602
-30.6012
-30.8756
-30.9557
-30.7451
-30.2922
-29.8066
-29.5324
-29.6759
-30.1037
-30.6367
-31.1029
-31.3565
-31.2683
-30.8406
-30.2074
-29.5128
-28.9216
-28.6024
-28.6804
-28.9573
-29.2091
-29.264
-29.1222
-28.9549
-28.9854
-29.4082
-30.0874
-30.8462
-31.5156
-31.9608
-32.0762
-31.9127
-31.6927
-31.6809
-32.1018
-32.8068
-33.5998
-34.2952
-34.7452
-34.8354
-34.622
-34.3486
-34.3037
-34.7318
-35.4724
-36.3129
-37.052
-37.5279
-37.613
-37.3628
-37.0343
-36.9328
-37.3166
-38.0095
-38.8052
-39.5732
-40.3399
-44.1538
-43.2549
-42.474
-42.0843
-43.2774
-45.017
-46.7829
-48.1755
-48.918
-48.4641
-46.8359
-44.6771
-42.2931
-40.1155
-38.6185
-38.7173
-39.306
-39.6995
-39.27
-37.9672
-36.2586
-34.373
-32.6416
-31.4349
-31.47
-31.8766
-32.1177
-31.7189
-30.6785
-29.491
-28.6405
-28.9088
-29.6357
-30.4659
-31.133
-31.454
-31.1063
-30.134
-29.0466
-28.3301
-28.763
-29.6882
-30.7546
-31.6841
-32.2837
-32.1843
-31.3894
-30.2852
-29.06
-27.9772
-27.3613
-27.8327
-28.6269
-29.2741
-29.3269
-28.7862
-28.099
-27.739
-28.47
-29.6413
-30.9096
-31.9893
-32.6887
-32.6511
-31.9234
-31.0389
-30.53
-31.25
-32.4688
-33.7978
-34.9226
-35.6318
-35.5389
-34.6949
-33.6853
-33.088
-33.83
-35.1201
-36.5366
-37.7408
-38.5017
-38.3948
-37.4678
-36.3407
-35.6262
-36.3065
-37.4777
-38.6499
-39.5041
-40.2387
-42.6588
-42.2104
-40.7104
-38.3011
-41.6805
-45.0786
-48.3138
-50.8463
-52.904
-52.3736
-49.2044
-45.8403
-41.9864
-38.3633
-35.0899
-37.3525
-39.7116
-41.6529
-41.4406
-39.1161
-36.5674
-33.5993
-30.7696
-28.1823
-29.9101
-31.6688
-33.0279
-32.6345
-30.4541
-28.0217
-25.6285
-27.143
-28.8629
-30.566
-31.889
-32.9156
-32.3671
-30.1421
-27.7527
-25.4731
-27.1415
-29.0696
-31.0703
-32.7408
-34.2176
-34.1022
-32.3841
-30.5372
-28.4024
-26.3605
-24.5548
-26.5204
-28.5083
-30.1954
-30.2445
-28.6612
-26.7722
-24.9217
-26.8977
-29.0558
-31.2447
-33.0107
-34.4782
-34.2199
-32.1597
-29.8442
-27.6093
-29.6798
-31.9719
-34.2895
-36.1484
-37.6735
-37.3236
-35.0061
-32.428
-29.9436
-32.1387
-34.5856
-37.0655
-39.0674
-40.725
-40.357
-37.8605
-35.0529
-32.3106
-34.5892
-36.9438
-38.9522
-39.6068
-39.433
-37.4647
-42.6804
-40.2559
-26.1822
-40.0567
-45.3749
-50.8566
-54.201
-60.6171
-60.083
-51.854
-47.7088
-41.3476
-36.1079
-23.5898
-35.849
-40.7192
-46.7079
-46.6531
-40.5881
-37.4806
-32.6266
-28.5488
-18.7165
-28.3059
-32.037
-36.4619
-36.1241
-30.5928
-26.4964
-16.99
-25.0818
-28.1149
-31.2136
-33.0726
-36.6459
-36.0427
-30.3872
-26.3012
-16.9315
-25.1464
-28.3469
-31.8621
-34.0768
-38.445
-38.3286
-33.565
-31.2044
-27.6114
-24.404
-16.3181
-25.1764
-28.8233
-33.476
-33.5129
-28.9767
-25.3904
-16.5944
-25.0635
-28.4262
-32.1892
-34.4619
-38.7529
-38.3835
-32.7635
-28.5336
-18.4891
-27.7903
-31.4383
-35.4416
-37.8549
-42.4148
-41.9415
-35.6921
-31.0355
-20.0606
-30.0844
-34.0033
-38.2825
-40.8893
-45.8647
-45.3839
-38.7006
-33.6706
-21.7643
-32.7621
-36.9078
-41.2032
-40.9012
-34.9188
-40.2325
-40.5868
-40.9245
-41.2423
-41.5376
-41.808
-42.0522
-42.2692
-42.4585
-42.62
-42.7538
-42.8603
-42.9397
-42.9925
-43.0188
-40.2451
-40.6029
-40.9438
-41.2644
-41.5618
-41.8338
-42.0789
-42.2964
-42.4858
-42.6471
-42.7806
-42.8868
-42.9659
-43.0184
-43.0446
-40.2702
-40.6354
-40.983
-41.3092
-41.6108
-41.8858
-42.1328
-42.3511
-42.5405
-42.7014
-42.8343
-42.9397
-43.0181
-43.0701
-43.096
-40.3081
-40.685
-41.0431
-41.3778
-41.686
-41.9654
-42.2148
-42.434
-42.6233
-42.7833
-42.9149
-43.019
-43.0962
-43.1473
-43.1728
-40.3591
-40.7529
-41.1258
-41.4725
-41.7894
-42.0743
-42.3265
-42.5464
-42.7348
-42.8931
-43.0226
-43.1245
-43.1999
-43.2497
-43.2745
-40.424
-40.8412
-41.2343
-41.5966
-41.9241
-42.2152
-42.4699
-42.6895
-42.8759
-43.0311
-43.1572
-43.2559
-43.3287
-43.3766
-43.4003
-40.504
-40.9532
-41.3729
-41.7548
-42.0948
-42.392
-42.6479
-42.8654
-43.0476
-43.1977
-43.3186
-43.4127
-43.4817
-43.527
-43.5494
-40.6013
-41.0941
-41.5487
-41.9545
-42.3078
-42.6095
-42.8638
-43.0758
-43.2507
-43.3929
-43.5064
-43.594
-43.6579
-43.6997
-43.7204
-40.7199
-41.2727
-41.7727
-42.2065
-42.5718
-42.874
-43.1214
-43.3228
-43.4857
-43.6163
-43.7194
-43.7983
-43.8556
-43.893
-43.9114
-40.8667
-41.5038
-42.0626
-42.5265
-42.8988
-43.193
-43.4247
-43.6077
-43.7525
-43.8667
-43.9558
-44.0236
-44.0727
-44.1046
-44.1203
-41.0521
-41.8129
-42.447
-42.9377
-43.3037
-43.5744
-43.7766
-43.9305
-44.0492
-44.1415
-44.2129
-44.2671
-44.3063
-44.3318
-44.3443
-41.2905
-42.2482
-42.9741
-43.4724
-43.8032
-44.0241
-44.1771
-44.2881
-44.3718
-44.4365
-44.4867
-44.5251
-44.553
-44.5712
-44.5803
-41.6016
-42.9143
-43.7282
-44.1731
-44.4105
-44.541
-44.6195
-44.6729
-44.7132
-44.7454
-44.7717
-44.7927
-44.8086
-44.8193
-44.8246
-42.0685
-44.0787
-44.8522
-45.0817
-45.1229
-45.1091
-45.087
-45.0707
-45.0621
-45.0598
-45.0614
-45.0649
-45.0688
-45.072
-45.0737
-43.4063
-46.478
-46.5194
-46.179
-45.8883
-45.6845
-45.5487
-45.4606
-45.4046
-45.3697
-45.3485
-45.336
-45.3291
-45.3255
-45.324
-50.4835
-50.492
-50.5096
-50.5378
-50.5788
-50.6363
-50.7161
-50.8273
-50.9852
-51.2171
-51.5773
-52.1906
-53.4047
-56.4213
-66.285
-50.6723
-50.6835
-50.7068
-50.7438
-50.7973
-50.8719
-50.9746
-51.1166
-51.3166
-51.6074
-52.051
-52.7764
-54.0726
-56.6181
-61.8537
-50.8532
-50.8666
-50.8943
-50.9382
-51.0012
-51.088
-51.2058
-51.3657
-51.585
-51.8914
-52.3291
-52.9655
-53.8728
-54.9467
-54.8648
-51.0246
-51.0397
-51.0706
-51.1192
-51.1883
-51.2824
-51.4077
-51.5736
-51.793
-52.0841
-52.469
-52.9664
-53.5573
-54.0779
-54.0143
-51.1856
-51.2016
-51.2346
-51.2859
-51.3582
-51.455
-51.5815
-51.7442
-51.9513
-52.2115
-52.5306
-52.9024
-53.2906
-53.6149
-53.8682
-51.3352
-51.3518
-51.3856
-51.4379
-51.5108
-51.607
-51.73
-51.8839
-52.0726
-52.2979
-52.5554
-52.8268
-53.0682
-53.201
-53.1516
-51.4732
-51.4899
-51.5237
-51.5756
-51.6471
-51.7402
-51.857
-51.9995
-52.1685
-52.3618
-52.5703
-52.772
-52.9213
-52.9135
-52.402
-51.5996
-51.6159
-51.649
-51.6995
-51.7684
-51.857
-51.9662
-52.0967
-52.2476
-52.415
-52.5895
-52.7537
-52.8833
-52.9757
-53.2922
-51.7145
-51.7303
-51.7621
-51.8105
-51.876
-51.9592
-52.0605
-52.1797
-52.3152
-52.4631
-52.6156
-52.7593
-52.8712
-52.8821
-52.4099
-51.8182
-51.8333
-51.8637
-51.9095
-51.9711
-52.0488
-52.1424
-52.2515
-52.3743
-52.5079
-52.6473
-52.787
-52.9293
-53.1237
-53.7394
-51.9113
-51.9256
-51.9543
-51.9974
-52.055
-52.1272
-52.2136
-52.3136
-52.4259
-52.5484
-52.6783
-52.8129
-52.9511
-53.0727
-52.96
-51.9944
-52.0078
-52.0347
-52.075
-52.1287
-52.1956
-52.2753
-52.3673
-52.4705
-52.5837
-52.7055
-52.8364
-52.9843
-53.1841
-53.6442
-52.068
-52.0805
-52.1056
-52.1432
-52.193
-52.255
-52.3285
-52.4132
-52.5082
-52.6127
-52.7259
-52.8481
-52.9814
-53.1146
-53.1096
-52.1327
-52.1444
-52.1677
-52.2026
-52.2489
-52.3061
-52.374
-52.4519
-52.5393
-52.6354
-52.7396
-52.8521
-52.9785
-53.1409
-53.4625
-52.1891
-52.2
-52.2217
-52.254
-52.2968
-52.3498
-52.4124
-52.4841
-52.5644
-52.6524
-52.7469
-52.8463
-52.9505
-53.0565
-53.1517
-52.2377
-52.2478
-52.268
-52.298
-52.3377
-52.3866
-52.4444
-52.5105
-52.5842
-52.6647
-52.75
-52.8373
-52.9212
-52.9794
-52.9092
-52.2792
-52.2886
-52.3073
-52.3351
-52.3719
-52.4171
-52.4705
-52.5315
-52.5994
-52.6733
-52.7512
-52.8306
-52.9096
-52.9913
-53.1373
-52.3139
-52.3226
-52.34
-52.3659
-52.3999
-52.4419
-52.4913
-52.5477
-52.6106
-52.6788
-52.7508
-52.824
-52.8963
-52.9581
-52.9519
-52.3423
-52.3505
-52.3666
-52.3907
-52.4223
-52.4613
-52.5072
-52.5596
-52.618
-52.6815
-52.7488
-52.818
-52.8903
-52.9717
-53.1059
-52.365
-52.3725
-52.3876
-52.41
-52.4395
-52.4758
-52.5185
-52.5674
-52.6219
-52.6814
-52.7446
-52.8099
-52.878
-52.9483
-53.0145
-52.3821
-52.3892
-52.4032
-52.4242
-52.4517
-52.4856
-52.5256
-52.5713
-52.6224
-52.6784
-52.7381
-52.8
-52.8641
-52.9273
-52.9774
-52.3941
-52.4007
-52.4139
-52.4335
-52.4593
-52.4911
-52.5285
-52.5714
-52.6196
-52.6725
-52.7292
-52.7884
-52.8509
-52.9149
-52.9724
-52.4012
-52.4075
-52.4199
-52.4383
-52.4625
-52.4924
-52.5276
-52.5681
-52.6135
-52.6637
-52.7177
-52.7747
-52.8365
-52.9067
-53.0103
-52.4038
-52.4097
-52.4214
-52.4388
-52.4616
-52.4898
-52.5231
-52.5613
-52.6043
-52.6518
-52.7032
-52.7576
-52.8162
-52.8749
-52.8936
-52.402
-52.4076
-52.4187
-52.4351
-52.4568
-52.4835
-52.515
-52.5512
-52.592
-52.637
-52.6857
-52.7375
-52.7959
-52.8706
-53.0224
-52.3961
-52.4015
-52.412
-52.4277
-52.4483
-52.4736
-52.5036
-52.538
-52.5767
-52.6194
-52.6651
-52.7129
-52.7641
-52.8123
-52.7877
-52.3863
-52.3914
-52.4015
-52.4164
-52.4361
-52.4604
-52.4891
-52.5219
-52.5588
-52.5993
-52.6421
-52.686
-52.7344
-52.804
-53.0113
-52.3727
-52.3776
-52.3873
-52.4016
-52.4206
-52.4439
-52.4715
-52.5031
-52.5386
-52.5772
-52.6172
-52.6559
-52.6899
-52.6996
-52.56
-52.3554
-52.3601
-52.3695
-52.3834
-52.4017
-52.4243
-52.4511
-52.4818
-52.5162
-52.5537
-52.5923
-52.6289
-52.6623
-52.6985
-52.8376
-52.3345
-52.3391
-52.3482
-52.3618
-52.3796
-52.4017
-52.4278
-52.4579
-52.4918
-52.529
-52.5677
-52.6041
-52.6327
-52.6254
-52.4472
-52.3102
-52.3147
-52.3236
-52.3368
-52.3543
-52.3759
-52.4016
-52.4314
-52.4652
-52.5029
-52.5434
-52.5849
-52.628
-52.6704
-52.705
-52.2825
-52.2869
-52.2956
-52.3086
-52.3258
-52.3472
-52.3726
-52.4022
-52.4361
-52.4745
-52.5172
-52.5644
-52.6238
-52.7204
-52.9908
-52.2513
-52.2557
-52.2643
-52.2772
-52.2942
-52.3153
-52.3405
-52.37
-52.4039
-52.4428
-52.4865
-52.5356
-52.5936
-52.6491
-52.5671
-52.2169
-52.2212
-52.2298
-52.2426
-52.2594
-52.2804
-52.3055
-52.3347
-52.3685
-52.4072
-52.4509
-52.5006
-52.5652
-52.6727
-52.9917
-52.1791
-52.1834
-52.192
-52.2047
-52.2215
-52.2424
-52.2674
-52.2964
-52.3299
-52.3678
-52.4097
-52.4553
-52.5071
-52.5488
-52.4055
-52.138
-52.1423
-52.1509
-52.1636
-52.1805
-52.2014
-52.2263
-52.2552
-52.2883
-52.3251
-52.3646
-52.4057
-52.4559
-52.5529
-52.9604
-52.0936
-52.0979
-52.1065
-52.1193
-52.1363
-52.1573
-52.1823
-52.2113
-52.2441
-52.2801
-52.3169
-52.35
-52.372
-52.3407
-51.9851
-52.0458
-52.0502
-52.0589
-52.0718
-52.0889
-52.1101
-52.1355
-52.1648
-52.198
-52.2341
-52.2704
-52.3018
-52.3253
-52.353
-52.5849
-51.9947
-51.9991
-52.0079
-52.021
-52.0383
-52.0599
-52.0857
-52.1157
-52.1499
-52.1875
-52.2259
-52.2591
-52.2756
-52.2228
-51.8443
-51.9401
-51.9446
-51.9535
-51.9668
-51.9845
-52.0065
-52.0329
-52.0639
-52.0996
-52.1399
-52.1834
-52.228
-52.2741
-52.3181
-52.3516
-51.8821
-51.8866
-51.8957
-51.9092
-51.9273
-51.9498
-51.9769
-52.0089
-52.0462
-52.0895
-52.1388
-52.1959
-52.2739
-52.4201
-52.8868
-51.8205
-51.8251
-51.8343
-51.8482
-51.8665
-51.8895
-51.9173
-51.9502
-51.9889
-52.0343
-52.0871
-52.1493
-52.2264
-52.2989
-52.1277
-51.7552
-51.76
-51.7694
-51.7835
-51.8023
-51.8257
-51.8541
-51.8877
-51.9272
-51.9735
-52.0275
-52.0922
-52.1822
-52.3463
-52.8777
-51.6864
-51.6912
-51.7008
-51.7152
-51.7343
-51.7582
-51.7871
-51.8211
-51.8609
-51.9068
-51.9588
-52.0176
-52.0864
-52.1378
-51.8724
-51.6137
-51.6187
-51.6285
-51.6431
-51.6627
-51.687
-51.7163
-51.7507
-51.7904
-51.8352
-51.8839
-51.9359
-52.0028
-52.1486
-52.8172
-51.5373
-51.5423
-51.5523
-51.5673
-51.5872
-51.6121
-51.642
-51.6768
-51.7166
-51.7604
-51.8051
-51.844
-51.8644
-51.7956
-51.1858
-51.4569
-51.4621
-51.4723
-51.4876
-51.508
-51.5334
-51.564
-51.5996
-51.6402
-51.6845
-51.7285
-51.7648
-51.7879
-51.8176
-52.1819
-51.3726
-51.3778
-51.3883
-51.4039
-51.4248
-51.4509
-51.4823
-51.5192
-51.5614
-51.6081
-51.6555
-51.6949
-51.7068
-51.6063
-50.9784
-51.2842
-51.2896
-51.3002
-51.3162
-51.3375
-51.3643
-51.3967
-51.4351
-51.4797
-51.5307
-51.5864
-51.6441
-51.7039
-51.7604
-51.8022
-51.1917
-51.1971
-51.208
-51.2243
-51.2461
-51.2735
-51.3069
-51.3467
-51.3939
-51.4493
-51.5141
-51.5919
-51.7031
-51.924
-52.6606
-51.095
-51.1005
-51.1115
-51.1281
-51.1503
-51.1783
-51.2124
-51.2534
-51.3024
-51.361
-51.431
-51.5165
-51.626
-51.7287
-51.4453
-50.994
-50.9996
-51.0108
-51.0276
-51.0501
-51.0785
-51.1131
-51.1547
-51.2045
-51.264
-51.3354
-51.4245
-51.5537
-51.8007
-52.6295
-50.8886
-50.8943
-50.9056
-50.9226
-50.9453
-50.9739
-51.0088
-51.0506
-51.1
-51.1581
-51.2257
-51.3046
-51.3997
-51.4678
-51.0386
-50.7789
-50.7846
-50.796
-50.8131
-50.836
-50.8647
-50.8997
-50.9412
-50.9896
-51.045
-51.1062
-51.1736
-51.2645
-51.4793
-52.5117
-50.6648
-50.6705
-50.682
-50.6991
-50.7221
-50.7509
-50.7859
-50.8271
-50.8746
-50.9271
-50.9807
-51.0261
-51.0432
-50.9223
-49.9611
-50.5463
-50.552
-50.5634
-50.5806
-50.6036
-50.6326
-50.6676
-50.7089
-50.7562
-50.8079
-50.8588
-50.8985
-50.9177
-50.9478
-51.4954
-50.4233
-50.429
-50.4404
-50.4576
-50.4806
-50.5096
-50.5449
-50.5867
-50.6351
-50.6887
-50.7428
-50.7849
-50.7848
-50.6131
-49.6358
-50.2959
-50.3015
-50.3129
-50.3299
-50.3529
-50.3819
-50.4175
-50.4601
-50.5104
-50.5686
-50.6331
-50.7008
-50.771
-50.8369
-50.8839
-50.1641
-50.1697
-50.1809
-50.1977
-50.2205
-50.2494
-50.285
-50.3283
-50.3805
-50.4434
-50.5193
-50.6148
-50.7603
-51.0728
-52.1707
-50.0279
-50.0334
-50.0444
-50.061
-50.0833
-50.1119
-50.1472
-50.1904
-50.2433
-50.3086
-50.3899
-50.4941
-50.6336
-50.7625
-50.3117
-49.8874
-49.8928
-49.9035
-49.9196
-49.9414
-49.9692
-50.0037
-50.0459
-50.0978
-50.1619
-50.2425
-50.3489
-50.5142
-50.8539
-52.0602
-49.7428
-49.7479
-49.7583
-49.7738
-49.7949
-49.8216
-49.8547
-49.895
-49.9439
-50.0032
-50.075
-50.163
-50.2736
-50.3426
-49.6753
-49.5941
-49.599
-49.6089
-49.6238
-49.6438
-49.6693
-49.7005
-49.7382
-49.783
-49.8352
-49.8942
-49.9614
-50.0619
-50.3417
-51.8106
-49.4414
-49.4461
-49.4555
-49.4696
-49.4885
-49.5125
-49.5418
-49.5767
-49.6171
-49.6618
-49.7057
-49.7368
-49.7256
-49.5141
-48.0876
-49.285
-49.2894
-49.2982
-49.3115
-49.3292
-49.3517
-49.3791
-49.4115
-49.4486
-49.4883
-49.5239
-49.5416
-49.5284
-49.5293
-50.2651
-49.1251
-49.1292
-49.1374
-49.1497
-49.1662
-49.1871
-49.2127
-49.2432
-49.2785
-49.3169
-49.3523
-49.368
-49.3215
-49.033
-47.6167
-48.9618
-48.9656
-48.9731
-48.9844
-48.9996
-49.0189
-49.0427
-49.0717
-49.1064
-49.1471
-49.1921
-49.2376
-49.2826
-49.3191
-49.3346
-48.7954
-48.7988
-48.8056
-48.8159
-48.8296
-48.8472
-48.8691
-48.8963
-48.9304
-48.9736
-49.0294
-49.1076
-49.2497
-49.6187
-51.0699
-48.6261
-48.6292
-48.6352
-48.6443
-48.6565
-48.6721
-48.6916
-48.7163
-48.7482
-48.7907
-48.8491
-48.9332
-49.0592
-49.1659
-48.4868
-48.4542
-48.4569
-48.4622
-48.4701
-48.4806
-48.4939
-48.5105
-48.5315
-48.5589
-48.5961
-48.6487
-48.7298
-48.882
-49.2578
-50.7714
-48.28
-48.2823
-48.2868
-48.2934
-48.3022
-48.313
-48.3262
-48.3424
-48.363
-48.39
-48.4263
-48.4771
-48.5496
-48.5585
-47.6002
-48.1036
-48.1055
-48.1093
-48.1148
-48.1218
-48.1301
-48.1396
-48.1505
-48.1628
-48.1768
-48.1916
-48.2094
-48.2612
-48.53
-50.2838
-47.9253
-47.927
-47.9302
-47.9346
-47.94
-47.9459
-47.952
-47.9576
-47.9618
-47.9623
-47.9525
-47.9181
-47.8222
-47.4692
-45.602
-47.7454
-47.7469
-47.7495
-47.7532
-47.7573
-47.7613
-47.7645
-47.7659
-47.7637
-47.7542
-47.7284
-47.6696
-47.5617
-47.4589
-48.2203
-47.564
-47.5653
-47.5677
-47.5708
-47.5741
-47.5769
-47.5782
-47.5769
-47.571
-47.5567
-47.5248
-47.4552
-47.2977
-46.8475
-45.0886
-47.3811
-47.3824
-47.3848
-47.3878
-47.3908
-47.3931
-47.3936
-47.3912
-47.3843
-47.3706
-47.3453
-47.3017
-47.2369
-47.1439
-47.0278
-47.1969
-47.1983
-47.2009
-47.2042
-47.2075
-47.2101
-47.2109
-47.2087
-47.2026
-47.1919
-47.1763
-47.1631
-47.1956
-47.4554
-48.893
-47.0111
-47.0128
-47.0159
-47.0199
-47.0243
-47.028
-47.03
-47.0292
-47.0245
-47.0157
-47.0034
-46.9929
-46.9964
-46.9478
-46.0465
-46.8236
-46.8257
-46.8296
-46.8349
-46.8409
-46.8467
-46.851
-46.8524
-46.8495
-46.8412
-46.827
-46.813
-46.8336
-47.0312
-48.2979
-46.6342
-46.6368
-46.6419
-46.6489
-46.6573
-46.666
-46.6739
-46.6789
-46.6787
-46.6699
-46.6482
-46.609
-46.5479
-46.3711
-45.227
-46.4425
-46.4457
-46.4521
-46.4613
-46.4728
-46.4857
-46.4985
-46.5092
-46.5139
-46.507
-46.4791
-46.4203
-46.3427
-46.3815
-47.5771
-46.248
-46.252
-46.2599
-46.2716
-46.2868
-46.3049
-46.3246
-46.3437
-46.3576
-46.358
-46.3293
-46.2448
-46.0566
-45.5877
-43.8321
-46.0501
-46.0549
-46.0644
-46.0789
-46.0983
-46.1226
-46.1511
-46.182
-46.2108
-46.2284
-46.2159
-46.1412
-45.9656
-45.6863
-45.8068
-45.8485
-45.854
-45.865
-45.8822
-45.9059
-45.937
-45.9758
-46.0218
-46.0722
-46.1191
-46.1434
-46.1078
-45.9466
-45.5061
-44.2424
-45.6426
-45.6486
-45.6608
-45.6802
-45.708
-45.7457
-45.7953
-45.8587
-45.9363
-46.0247
-46.1103
-46.1615
-46.1217
-45.8967
-45.4366
-45.4321
-45.4382
-45.4512
-45.472
-45.5026
-45.5457
-45.6052
-45.6858
-45.7931
-45.9315
-46.0989
-46.2783
-46.4256
-46.4494
-46.3181
-45.2167
-45.2227
-45.2355
-45.2564
-45.288
-45.3341
-45.4002
-45.4946
-45.6286
-45.8173
-46.077
-46.4175
-46.8152
-47.1087
-46.8808
-44.9967
-45.002
-45.0135
-45.0329
-45.0629
-45.1081
-45.1756
-45.276
-45.4264
-45.6531
-45.9966
-46.5171
-47.2772
-48.1291
-47.5262
-44.7724
-44.7765
-44.7856
-44.8014
-44.8267
-44.8664
-44.9278
-45.023
-45.1715
-45.407
-45.7911
-46.4503
-47.6756
-50.1586
-55.5479
-44.5448
-44.5471
-44.5526
-44.5627
-44.5801
-44.6091
-44.6565
-44.733
-44.8562
-45.0569
-45.3924
-45.9905
-47.2007
-50.1689
-59.5303
-61.0033
-51.4539
-48.3979
-47.1393
-46.5084
-46.1485
-45.9282
-45.7887
-45.6989
-45.6407
-45.603
-45.5789
-45.5639
-45.5553
-45.5513
-57.3127
-51.4673
-48.8575
-47.5765
-46.8821
-46.4725
-46.2171
-46.0525
-45.9443
-45.8724
-45.8245
-45.7929
-45.7725
-45.7604
-45.7548
-48.3039
-49.2326
-48.3948
-47.6061
-47.0561
-46.6888
-46.4431
-46.2773
-46.1645
-46.0872
-46.0343
-45.9984
-45.9749
-45.9606
-45.9539
-48.04
-48.2234
-47.8985
-47.4697
-47.1015
-46.8198
-46.6135
-46.4654
-46.3598
-46.2848
-46.2318
-46.195
-46.1703
-46.1551
-46.1479
-47.655
-47.5662
-47.4749
-47.291
-47.085
-46.8976
-46.7437
-46.6241
-46.5338
-46.4667
-46.4176
-46.3826
-46.3585
-46.3436
-46.3364
-46.3072
-46.9096
-47.1159
-47.1274
-47.0536
-46.9514
-46.8503
-46.7626
-46.6915
-46.6357
-46.5933
-46.562
-46.54
-46.5261
-46.5193
-45.5781
-46.5272
-46.8926
-47.023
-47.0401
-47.0035
-46.9475
-46.8899
-46.8383
-46.7952
-46.7607
-46.7343
-46.7154
-46.7031
-46.6971
-46.4577
-46.549
-46.833
-46.9968
-47.062
-47.0683
-47.0459
-47.0132
-46.9792
-46.9482
-46.922
-46.9011
-46.8855
-46.8753
-46.8702
-45.0188
-46.4358
-46.857
-47.0391
-47.1229
-47.1521
-47.1517
-47.1375
-47.118
-47.0977
-47.0791
-47.0635