/*--------------------------------*- C++ -*----------------------------------*\
| =========                 |                                                 |
| \\      /  F ield         | OpenFOAM: The Open Source CFD Toolbox           |
|  \\    /   O peration     | Version:  5.x                                   |
|   \\  /    A nd           | Web:      www.OpenFOAM.org                      |
|    \\/     M anipulation  |                                                 |
\*---------------------------------------------------------------------------*/
FoamFile
{
    version     2.0;
    format      ascii;
    class       volScalarField;
    location    "3";
    object      gradTy;
}
// * * * * * * * * * * * * * * * * * * * * * * * * * * * * * * * * * * * * * //

dimensions      [0 -1 0 1 0 0 0];

internalField   nonuniform List<scalar> 
6300
(
32276
32227.9
32179.9
32131.9
32084.1
32036.3
31988.7
31941.2
31893.9
31846.9
31800
31753.5
31707.2
31661.2
31615.5
-0.0183561
-0.0551438
-0.0921437
-0.129451
-0.167094
-0.205004
-0.242995
-0.280746
-0.317801
-0.353593
-0.3875
-0.418939
-0.447499
-0.473091
-0.496075
-0.0305103
-0.0916708
-0.15323
-0.215379
-0.278192
-0.341582
-0.405254
-0.468676
-0.531061
-0.591402
-0.648554
-0.701403
-0.749099
-0.791347
-0.828683
-0.0425226
-0.127796
-0.213724
-0.300637
-0.388706
-0.477867
-0.567754
-0.65763
-0.746351
-0.832381
-0.913893
-0.988999
-1.05612
-1.11449
-1.16465
-0.0543052
-0.163263
-0.273225
-0.38473
-0.498115
-0.613413
-0.730248
-0.847719
-0.964309
-1.07785
-1.18561
-1.28455
-1.37187
-1.4458
-1.50654
-0.0657394
-0.197722
-0.331175
-0.466932
-0.605595
-0.747405
-0.892085
-1.03866
-1.18529
-1.32907
-1.46611
-1.59168
-1.70096
-1.79024
-1.8586
-0.076668
-0.230706
-0.38681
-0.546215
-0.709912
-0.878505
-1.052
-1.22953
-1.40906
-1.58701
-1.75803
-1.91504
-2.05
-2.15558
-2.22804
-0.0868919
-0.261617
-0.439134
-0.621188
-0.809313
-1.00468
-1.20784
-1.41837
-1.63438
-1.85184
-2.06389
-2.26042
-2.42838
-2.55396
-2.62729
-0.0961717
-0.289728
-0.486907
-0.690069
-0.90145
-1.12302
-1.35626
-1.60169
-1.8582
-2.12202
-2.38524
-2.6343
-2.84907
-3.00456
-3.0779
-0.104236
-0.314205
-0.528682
-0.750711
-0.983365
-1.22968
-1.49245
-1.77387
-2.07467
-2.39274
-2.7207
-3.04241
-3.32899
-3.53724
-3.61765
-0.110799
-0.334166
-0.562887
-0.800702
-1.05159
-1.31983
-1.60996
-1.92662
-2.27382
-2.65351
-3.06235
-3.48561
-3.88717
-4.1977
-4.31415
-0.115591
-0.34876
-0.587981
-0.837594
-1.10243
-1.38803
-1.70091
-2.04876
-2.44042
-2.88508
-3.38952
-3.95043
-4.53631
-5.05215
-5.29473
-0.118392
-0.357292
-0.60266
-0.859236
-1.13246
-1.42891
-1.75684
-2.12705
-2.55395
-3.0568
-3.66018
-4.39022
-5.2554
-6.17974
-6.82308
-0.119074
-0.359341
-0.606109
-0.864195
-1.13924
-1.43825
-1.77043
-2.14859
-2.59149
-3.12794
-3.80408
-4.6948
-5.91518
-7.58815
-9.50408
-0.11763
-0.354877
-0.598215
-0.852162
-1.12201
-1.41436
-1.73798
-2.10534
-2.5354
-3.05934
-3.73333
-4.66962
-6.12219
-8.75337
-14.5816
31573.9
31536.4
31499.1
31462
31425.3
31388.7
31352.5
31316.6
31281
31245.7
31210.7
31176.1
31141.9
31108
31074.6
31041.5
31008.9
30976.6
30944.8
30913.3
30882.3
30851.6
30821.4
30791.5
30761.9
30732.8
30703.9
30675.4
30647.1
30619.1
30591.4
30563.9
30536.6
30509.6
30482.7
30455.9
30429.3
30402.9
30376.5
30350.3
30324.2
30298.1
30272.2
30246.3
30220.4
30194.6
30168.8
30143.1
30117.4
30091.7
30066
30040.3
30014.5
29988.8
29962.9
29937
29911
29885
29858.8
29832.5
29806
29779.4
29752.7
29725.7
29698.6
29671.3
29643.8
29616.2
29588.3
29560.2
29531.8
29503.3
29474.5
29445.5
29416.3
29386.8
29357.1
29327.1
29296.9
29266.4
29235.7
29204.7
29173.4
29141.9
29110.1
29078.1
29045.7
29013.1
28980.3
28947.2
-0.515556
-0.532911
-0.550813
-0.57017
-0.591749
-0.616029
-0.643092
-0.672573
-0.703691
-0.735351
-0.76629
-0.795251
-0.821122
-0.843028
-0.860357
-0.872724
-0.879913
-0.881802
-0.878325
-0.869467
-0.855285
-0.83595
-0.811771
-0.783204
-0.750825
-0.715295
-0.677317
-0.6376
-0.596842
-0.555719
-0.514872
-0.474879
-0.436232
-0.399299
-0.36432
-0.331408
-0.300583
-0.271812
-0.245044
-0.220216
-0.197245
-0.175977
-0.156155
-0.137383
-0.119135
-0.100794
-0.0817316
-0.0613856
-0.0393408
-0.0153761
0.0105226
0.0381846
0.0672968
0.0974518
0.128189
0.159022
0.189464
0.219047
0.247358
0.274074
0.298992
0.322044
0.343278
0.362822
0.380831
0.397443
0.412751
0.426814
0.439679
0.451423
0.462173
0.472105
0.481416
0.490283
0.498822
0.507074
0.515015
0.522591
0.529757
0.536502
0.542839
0.54877
0.554225
0.559009
0.562777
0.565038
0.56521
0.562687
0.556921
0.54749
-0.859802
-0.887295
-0.915691
-0.946738
-0.981945
-1.02229
-1.06798
-1.11836
-1.17197
-1.22675
-1.28032
-1.33037
-1.37489
-1.41239
-1.4419
-1.46287
-1.47506
-1.47832
-1.47256
-1.45771
-1.43382
-1.4011
-1.36009
-1.31157
-1.25656
-1.19624
-1.13182
-1.06452
-0.995522
-0.925975
-0.856984
-0.789562
-0.724572
-0.662651
-0.604183
-0.549309
-0.497998
-0.450145
-0.405644
-0.364421
-0.326394
-0.29138
-0.25899
-0.228557
-0.199136
-0.169586
-0.138722
-0.105486
-0.0691106
-0.0292061
0.0142171
0.0608068
0.109965
0.160948
0.212943
0.265102
0.316575
0.366531
0.414225
0.459069
0.500707
0.539047
0.574232
0.606557
0.636355
0.663889
0.68931
0.712669
0.73399
0.753363
0.771004
0.787249
0.802494
0.817093
0.831268
0.845067
0.858395
0.871101
0.883074
0.894308
0.904886
0.914902
0.924325
0.932876
0.939962
0.944687
0.94596
0.942642
0.933713
0.918409
-1.20516
-1.24034
-1.2767
-1.31726
-1.36469
-1.42079
-1.48604
-1.55943
-1.63851
-1.71981
-1.79936
-1.87337
-1.9387
-1.99319
-2.03564
-2.06559
-2.08297
-2.08775
-2.0798
-2.0589
-2.02494
-1.97811
-1.91912
-1.84917
-1.76985
-1.68297
-1.59036
-1.49377
-1.39487
-1.29531
-1.19671
-1.10062
-1.00837
-0.920906
-0.838743
-0.761948
-0.690306
-0.623521
-0.561394
-0.503893
-0.451073
-0.402873
-0.358876
-0.318145
-0.279194
-0.240145
-0.199
-0.153985
-0.103839
-0.0479825
0.0134713
0.0798481
0.15012
0.223103
0.29757
0.372283
0.445977
0.51738
0.5853
0.648783
0.707272
0.760692
0.809402
0.854029
0.895229
0.93347
0.968928
1.00154
1.03119
1.05788
1.08192
1.10391
1.12458
1.14459
1.16433
1.18381
1.20274
1.22073
1.23752
1.25312
1.2678
1.28194
1.29573
1.30891
1.32059
1.32935
1.33337
1.33073
1.31975
1.29916
-1.55285
-1.59164
-1.63164
-1.67786
-1.73492
-1.80606
-1.89235
-1.99226
-2.10183
-2.21534
-2.32635
-2.42883
-2.5181
-2.59132
-2.64738
-2.68642
-2.70902
-2.71552
-2.7057
-2.67893
-2.63461
-2.57269
-2.494
-2.40031
-2.29409
-2.17803
-2.05471
-1.92644
-1.79529
-1.66339
-1.53296
-1.4063
-1.2854
-1.17169
-1.06574
-0.967352
-0.875818
-0.790399
-0.710703
-0.636858
-0.569347
-0.508574
-0.454336
-0.405455
-0.359695
-0.314031
-0.265174
-0.210209
-0.147138
-0.0751777
0.00526628
0.0928991
0.185983
0.282722
0.381436
0.480514
0.578256
0.672816
0.76233
0.845248
0.920692
0.988668
1.05
1.10598
1.15791
1.2066
1.25218
1.29424
1.33218
1.36576
1.39536
1.42203
1.44716
1.47204
1.49733
1.52291
1.54802
1.57169
1.59328
1.61285
1.63112
1.64912
1.66767
1.68673
1.70511
1.72054
1.73005
1.73056
1.71936
1.69451
-1.90527
-1.94113
-1.97755
-2.02279
-2.08481
-2.16947
-2.27897
-2.41109
-2.5594
-2.71441
-2.86555
-3.00324
-3.12055
-3.21405
-3.28354
-3.33084
-3.35818
-3.36669
-3.35591
-3.32414
-3.26956
-3.19133
-3.09038
-2.96943
-2.8324
-2.68346
-2.52614
-2.36316
-2.19673
-2.02926
-1.86373
-1.70358
-1.55203
-1.41124
-1.2818
-1.16282
-1.05247
-0.94898
-0.851537
-0.760655
-0.67788
-0.604827
-0.542052
-0.488245
-0.440039
-0.392501
-0.340134
-0.278101
-0.20324
-0.114595
-0.0133027
0.0980827
0.216557
0.339466
0.464746
0.590628
0.715076
0.835471
0.948808
1.05242
1.14481
1.22615
1.29822
1.36371
1.42518
1.48412
1.54044
1.59277
1.63938
1.67928
1.71293
1.74226
1.77004
1.7988
1.82981
1.86261
1.89528
1.92554
1.95188
1.97438
1.99471
2.01545
2.0388
2.06545
2.0938
2.12017
2.13963
2.14717
2.13856
2.1109
-2.2671
-2.28976
-2.31069
-2.34353
-2.40207
-2.49704
-2.63295
-2.80658
-3.00724
-3.21899
-3.42406
-3.60691
-3.75721
-3.8713
-3.95156
-4.00395
-4.03436
-4.04558
-4.03627
-4.00214
-3.93847
-3.84261
-3.71547
-3.5616
-3.3878
-3.20086
-3.00564
-2.80474
-2.59957
-2.39223
-2.18665
-1.98839
-1.80307
-1.63433
-1.48272
-1.34575
-1.21913
-1.09876
-0.982818
-0.872675
-0.772307
-0.686177
-0.616754
-0.562872
-0.519325
-0.477825
-0.428913
-0.364363
-0.279088
-0.172123
-0.0463048
0.0931565
0.240845
0.392888
0.547282
0.702898
0.857826
1.00838
1.14938
1.27584
1.38492
1.47708
1.55602
1.6273
1.69618
1.7655
1.83454
1.89962
1.95632
2.00189
2.0368
2.06481
2.09158
2.12239
2.15982
2.20256
2.24611
2.28511
2.31609
2.33909
2.35782
2.37806
2.40526
2.44178
2.48542
2.52982
2.56645
2.58709
2.58527
2.55683
-2.64739
-2.64083
-2.62667
-2.62722
-2.66685
-2.76562
-2.93259
-3.16312
-3.43909
-3.73313
-4.01453
-4.25741
-4.44593
-4.57719
-4.65965
-4.70861
-4.7381
-4.75392
-4.75227
-4.72255
-4.65362
-4.53878
-4.37891
-4.1823
-3.96194
-3.72999
-3.49314
-3.25226
-3.00533
-2.75246
-2.49877
-2.25433
-2.02996
-1.83246
-1.66229
-1.5135
-1.37647
-1.24185
-1.10542
-0.970273
-0.845868
-0.743095
-0.66869
-0.622221
-0.595259
-0.57341
-0.539785
-0.480025
-0.385714
-0.256329
-0.0984696
0.0768759
0.25936
0.44343
0.62857
0.816672
1.0074
1.19557
1.37145
1.52483
1.64993
1.74759
1.82542
1.89487
1.96712
2.04785
2.13488
2.21913
2.28984
2.3404
2.37117
2.38972
2.40784
2.437
2.4827
2.54189
2.60402
2.65674
2.69228
2.71048
2.71922
2.73115
2.75878
2.80827
2.87639
2.95107
3.0167
3.05971
3.07066
3.0442
-3.06339
-3.00279
-2.92147
-2.85459
-2.84645
-2.93601
-3.14071
-3.4542
-3.84492
-4.26543
-4.66044
-4.98612
-5.21706
-5.35327
-5.41589
-5.44119
-5.46136
-5.48727
-5.50853
-5.49921
-5.43469
-5.29956
-5.09499
-4.83691
-4.55246
-4.26587
-3.98607
-3.70812
-3.41926
-3.11343
-2.79715
-2.49087
-2.21767
-1.99072
-1.8105
-1.66371
-1.52973
-1.3869
-1.22549
-1.0517
-0.887538
-0.758386
-0.679588
-0.652642
-0.662971
-0.685067
-0.687376
-0.644497
-0.541866
-0.380524
-0.174768
0.0513923
0.276696
0.493556
0.706737
0.927827
1.16182
1.40166
1.6271
1.81579
1.95568
2.04794
2.10814
2.15969
2.22713
2.32242
2.44051
2.55942
2.65368
2.70871
2.72441
2.71652
2.70947
2.72906
2.78742
2.8782
2.97668
3.05435
3.0946
3.09664
3.07718
3.06273
3.08189
3.14902
3.25892
3.38634
3.50044
3.57937
3.61073
3.5899
-3.54759
-3.39456
-3.19539
-2.99734
-2.88529
-2.94056
-3.19214
-3.63404
-4.20784
-4.83441
-5.40618
-5.85118
-6.12455
-6.23524
-6.22577
-6.18105
-6.17624
-6.22715
-6.30865
-6.35517
-6.31723
-6.16012
-5.88787
-5.52923
-5.14574
-4.79161
-4.47595
-4.17929
-3.85721
-3.489
-3.08065
-2.67927
-2.33822
-2.0811
-1.90996
-1.79485
-1.69506
-1.55803
-1.36266
-1.11852
-0.877997
-0.700333
-0.614935
-0.628465
-0.712789
-0.824241
-0.899039
-0.893986
-0.781506
-0.56758
-0.279311
0.0283196
0.307407
0.550228
0.774797
1.02171
1.30912
1.62983
1.93704
2.17839
2.33142
2.39585
2.40478
2.40305
2.44848
2.56562
2.74641
2.93669
3.07546
3.13517
3.11308
3.0436
2.97421
2.96677
3.04693
3.20489
3.38075
3.50723
3.55333
3.51514
3.42927
3.34726
3.33721
3.42944
3.61748
3.84196
4.03593
4.1686
4.22695
4.21751
-4.16037
-3.85267
-3.46758
-3.01604
-2.68299
-2.6622
-2.9693
-3.62372
-4.49458
-5.48209
-6.33428
-6.96324
-7.26617
-7.29009
-7.08626
-6.86331
-6.81077
-6.92284
-7.15906
-7.33262
-7.37129
-7.18642
-6.80509
-6.25732
-5.69674
-5.26194
-4.93846
-4.68707
-4.36158
-3.92238
-3.35417
-2.78089
-2.33798
-2.04778
-1.92882
-1.90406
-1.91415
-1.81337
-1.57027
-1.18039
-0.778221
-0.509722
-0.408141
-0.502661
-0.723892
-1.01658
-1.22612
-1.29863
-1.16774
-0.862229
-0.412303
0.0457732
0.38975
0.632592
0.810093
1.05664
1.40786
1.87677
2.34114
2.66746
2.83405
2.823
2.71603
2.57781
2.56583
2.71641
3.03791
3.38736
3.61035
3.67864
3.56927
3.36978
3.14903
3.07759
3.19368
3.5051
3.85525
4.07521
4.13277
4.00164
3.77516
3.52756
3.44465
3.57134
3.92303
4.34102
4.65916
4.86432
4.94025
4.95847
-5.01477
-4.422
-3.83524
-2.86378
-2.03065
-1.91123
-2.24586
-3.30125
-4.61291
-6.32418
-7.58345
-8.54442
-8.80922
-8.67263
-7.97408
-7.3
-7.20815
-7.43969
-8.09964
-8.50437
-8.74732
-8.4958
-7.96223
-7.00415
-6.06698
-5.57243
-5.29767
-5.30216
-5.03037
-4.54225
-3.63581
-2.69566
-2.11887
-1.769
-1.81321
-1.96435
-2.29424
-2.27517
-1.99081
-1.26171
-0.48781
-0.0807442
0.0789238
-0.196588
-0.634418
-1.33106
-1.75308
-1.99885
-1.80829
-1.3678
-0.560135
0.224325
0.614408
0.805641
0.7425
0.937298
1.33349
2.12657
2.94025
3.38271
3.58855
3.38431
3.06828
2.56673
2.445
2.61692
3.28502
4.0159
4.36382
4.4737
4.15102
3.72238
3.10467
2.91422
3.05505
3.74544
4.5132
4.8731
4.98003
4.62163
4.14768
3.46705
3.24669
3.38575
4.12971
4.98058
5.44192
5.74309
5.73367
5.85918
-6.356
-4.98239
-4.75661
-2.5122
-0.350493
-0.506372
-0.484467
-2.6097
-4.15573
-7.81708
-9.26214
-11.128
-10.9302
-10.8643
-8.82654
-6.89811
-7.1397
-7.33952
-9.40761
-9.90895
-10.8353
-10.2111
-9.73043
-7.72063
-5.79956
-5.56616
-5.2545
-6.31482
-6.0104
-5.76416
-3.96565
-2.08675
-1.57255
-0.922358
-1.54322
-1.7669
-3.17646
-3.11858
-3.05132
-1.40699
0.331428
0.705081
1.1932
0.343756
-0.171734
-2.04048
-2.5333
-3.32677
-2.80809
-2.40141
-0.673812
0.971559
1.12619
1.34573
0.304221
0.528701
0.68841
2.34756
4.07478
4.43958
4.93444
4.10744
3.68855
2.00961
1.9022
1.80385
3.44265
5.19683
5.46102
5.89259
4.88628
4.34823
2.44602
2.27477
2.12601
3.87531
5.75936
6.03618
6.4983
5.40897
4.81881
2.74469
2.53213
2.32997
4.18328
6.18182
6.45611
7.06993
6.33367
7.04191
-9.06344
-3.88977
-8.58463
-2.04133
4.66713
0.642593
4.36892
-2.75213
-0.652377
-12.5014
-10.3348
-16.6832
-12.8611
-15.8952
-9.52145
-3.37126
-7.13124
-4.54885
-12.9716
-10.7014
-15.1556
-11.7198
-13.7003
-8.3091
-3.10164
-5.6723
-3.23536
-9.29246
-6.90634
-9.22108
-4.41086
0.487672
-1.22168
1.75505
-1.84478
0.138662
-6.17141
-3.97506
-6.38241
-1.68725
3.11643
1.32662
4.23414
0.403732
2.2402
-4.73073
-2.88
-6.54368
-3.64602
-5.33654
-0.668401
3.86614
1.54521
3.70249
-1.95637
0.214128
-2.11514
2.4713
7.172
5.31
8.18463
4.24371
6.12415
-0.809711
1.3472
-1.50985
3.43497
8.52424
6.31805
9.38292
4.94815
6.93937
-0.704295
1.60384
-1.53531
3.81201
9.32085
6.93332
10.2515
5.47842
7.62772
-0.657374
1.80348
-1.68476
4.02857
9.8668
6.9822
10.3417
4.85451
9.17742
-18.6441
11.4137
-28.5955
-1.80807
25.1406
-9.36938
24.8429
-16.1722
22.9375
-37.3679
0.85464
-36.8837
-4.91897
-34.4733
-9.89416
14.4265
-16.2556
14.0894
-31.9331
-1.81068
-30.8376
-5.42869
-28.2855
-8.6329
10.7968
-12.9894
11.0153
-24.4284
-1.03307
-22.9381
-4.98336
12.5773
-7.61894
13.9026
-10.1865
13.9867
-21.416
1.79746
-19.9416
-2.12429
15.3956
-4.8166
16.9772
-7.69726
17.3342
-20.125
4.71323
-19.2099
2.12206
-17.4292
-0.471695
16.6316
-4.48556
17.3134
-15.4925
6.37801
-14.8786
2.42919
19.7182
-0.641739
21.2479
-4.00421
21.2509
-16.7212
8.01082
-16.0598
3.21776
22.3555
-0.416815
23.6711
-4.24497
23.4031
-18.1867
8.77543
-17.4186
3.51462
24.2516
-0.387217
25.6546
-4.42177
25.4607
-19.5349
9.64019
-18.9509
3.69282
26.1115
-1.48421
26.3513
-10.7523
17.3772
28910.4
28870
28829.3
28788.2
28746.8
28705.1
28663.1
28620.9
28578.5
28536
28493.3
28450.4
28407.5
28364.5
28321.5
0.532811
0.511154
0.484205
0.452647
0.417382
0.379386
0.339597
0.298833
0.257743
0.21679
0.17626
0.136283
0.0968642
0.0579113
0.0192671
0.894071
0.857629
0.811984
0.758421
0.698583
0.634228
0.567016
0.498364
0.429373
0.360809
0.293124
0.226503
0.160918
0.0961807
0.0319959
1.2652
1.21329
1.14767
1.07045
0.984284
0.891913
0.795864
0.698228
0.600577
0.503953
0.408929
0.31569
0.224125
0.1339
0.0445342
1.65104
1.58252
1.49482
1.39131
1.27607
1.15317
1.02621
0.898043
0.770704
0.645461
0.522925
0.403195
0.285988
0.170757
0.0567764
2.05794
1.97086
1.85771
1.72384
1.57543
1.4184
1.25769
1.09697
0.938689
0.784223
0.634084
0.488153
0.345865
0.206359
0.06859
2.49416
2.38527
2.24132
2.07087
1.88335
1.68723
1.48908
1.29338
1.1028
0.918614
0.741003
0.569444
0.402943
0.240216
0.0798115
2.97113
2.83494
2.65157
2.43507
2.19989
1.95803
1.7179
1.48454
1.26045
1.04637
0.841828
0.645648
0.456228
0.271741
0.0902467
3.50509
3.33224
3.09536
2.81829
2.52338
2.22722
1.9399
1.66631
1.408
1.1645
0.934237
0.715054
0.504555
0.300259
0.0996752
4.12006
3.89415
3.57985
3.21988
2.84869
2.488
2.1483
1.83277
1.54064
1.26932
1.0155
0.775728
0.546648
0.325046
0.107862
4.85424
4.54415
4.10984
3.63264
3.16396
2.72832
2.33286
1.97593
1.65246
1.35656
1.08263
0.825661
0.581225
0.345391
0.11458
5.78263
5.31663
4.68125
4.03544
3.44579
2.92866
2.47914
2.08577
1.7367
1.42178
1.13275
0.863009
0.607162
0.360692
0.11964
7.09421
6.25909
5.26373
4.38098
3.65439
3.06128
2.56938
2.15136
1.78682
1.46107
1.16355
0.886415
0.623691
0.370558
0.122923
9.29883
7.36175
5.73517
4.57049
3.72926
3.09267
2.58582
2.16351
1.79811
1.4721
1.17388
0.895366
0.630596
0.37491
0.124409
13.5719
8.15271
5.74427
4.43631
3.59938
2.99444
2.51781
2.11879
1.76999
1.45529
1.16446
0.890517
0.62838
0.374056
0.124201
-0.114624
-0.345627
-0.582
-0.827671
-1.08716
-1.36598
-1.67122
-2.01265
-2.4046
-2.86985
-3.44821
-4.21778
-5.35483
-7.32302
-11.5328
-0.110536
-0.333076
-0.560081
-0.794735
-1.04055
-1.30156
-1.58251
-1.88919
-2.22864
-2.60904
-3.03778
-3.51117
-3.96766
-4.07293
-2.19811
-0.105424
-0.317411
-0.532831
-0.754018
-0.983357
-1.22324
-1.47589
-1.74294
-2.02419
-2.31462
-2.59626
-2.81617
-2.82433
-2.19789
0.223833
-0.099518
-0.299352
-0.501554
-0.70761
-0.918804
-1.13601
-1.35924
-1.58678
-1.81334
-2.02625
-2.1975
-2.26807
-2.1217
-1.5694
-0.523513
-0.0930539
-0.279635
-0.467581
-0.657603
-0.850038
-1.04454
-1.23955
-1.43127
-1.61195
-1.76677
-1.86855
-1.87047
-1.70099
-1.28353
-0.648658
-0.0862567
-0.258957
-0.432145
-0.605887
-0.779792
-0.952685
-1.12208
-1.28337
-1.4285
-1.54408
-1.60888
-1.59171
-1.45248
-1.14851
-0.610833
-0.0793251
-0.237926
-0.396302
-0.554026
-0.710208
-0.863202
-1.0102
-1.14665
-1.26554
-1.35664
-1.40607
-1.39758
-1.31834
-1.17569
-1.04795
-0.0724231
-0.217039
-0.360889
-0.503204
-0.642796
-0.777835
-0.905577
-1.02206
-1.12185
-1.19811
-1.24341
-1.25245
-1.22817
-1.19239
-1.19044
-0.0656767
-0.19667
-0.32652
-0.45424
-0.578504
-0.697487
-0.808721
-0.908999
-0.99445
-1.06103
-1.10588
-1.13033
-1.14589
-1.18548
-1.32353
-0.0591757
-0.177083
-0.293606
-0.407645
-0.517838
-0.622471
-0.719419
-0.80618
-0.880105
-0.93901
-0.98247
-1.01426
-1.04683
-1.11008
-1.27555
-0.0529786
-0.158444
-0.262394
-0.363687
-0.460991
-0.552741
-0.637134
-0.712217
-0.776137
-0.827663
-0.867086
-0.897542
-0.926376
-0.96356
-0.998856
-0.0471186
-0.140844
-0.233005
-0.322465
-0.407958
-0.488071
-0.56126
-0.62595
-0.680724
-0.724667
-0.757847
-0.781825
-0.800041
-0.818213
-0.850404
-0.0416095
-0.124317
-0.205469
-0.283965
-0.358619
-0.428156
-0.491234
-0.546514
-0.592779
-0.629094
-0.654912
-0.669973
-0.673666
-0.66299
-0.621856
-0.0364512
-0.108856
-0.179754
-0.248099
-0.31279
-0.372676
-0.426567
-0.473282
-0.511696
-0.540759
-0.559364
-0.565874
-0.557204
-0.528788
-0.487486
-0.0316341
-0.0944274
-0.155788
-0.214735
-0.270255
-0.321305
-0.366825
-0.405759
-0.437059
-0.45964
-0.472136
-0.47218
-0.454393
-0.40341
-0.260553
-0.027142
-0.0809798
-0.133475
-0.183716
-0.230778
-0.273721
-0.3116
-0.343479
-0.368429
-0.385481
-0.393479
-0.390736
-0.374575
-0.341717
-0.296236
-0.022955
-0.0684508
-0.112702
-0.154871
-0.194118
-0.229599
-0.260482
-0.285953
-0.305232
-0.317563
-0.322207
-0.318477
-0.306279
-0.288654
-0.280647
-0.019051
-0.0567719
-0.0933498
-0.128022
-0.160028
-0.188617
-0.213061
-0.232668
-0.246806
-0.254936
-0.256675
-0.251964
-0.241649
-0.228789
-0.218154
-0.0154067
-0.0458725
-0.0752968
-0.102988
-0.128264
-0.150459
-0.168939
-0.18312
-0.192499
-0.1967
-0.195551
-0.189224
-0.178689
-0.167243
-0.166928
-0.011999
-0.0356821
-0.0584223
-0.0795969
-0.0985952
-0.114828
-0.127742
-0.136844
-0.141729
-0.142126
-0.137944
-0.129279
-0.116269
-0.0978286
-0.0629876
-0.00880516
-0.0261319
-0.0426102
-0.0576816
-0.0708011
-0.0814465
-0.0891337
-0.093437
-0.0940197
-0.0906748
-0.0833632
-0.0722217
-0.057549
-0.0396667
-0.0175432
-0.00580343
-0.0171564
-0.0277503
-0.0370863
-0.0446791
-0.0500651
-0.0528156
-0.0525543
-0.0489839
-0.0419235
-0.0313533
-0.0174778
-0.000998172
0.0156855
0.0236878
-0.00297317
-0.00869365
-0.0137389
-0.0176658
-0.0200434
-0.0204592
-0.0185295
-0.0139111
-0.00631986
0.0044412
0.0184473
0.0356004
0.0554679
0.0771872
0.103434
-0.000294899
-0.000685215
-0.000479226
0.000714326
0.0032764
0.00757298
0.0139498
0.022727
0.0341937
0.0485991
0.0661425
0.0869344
0.110716
0.135683
0.154066
0.00224969
0.00692369
0.0121196
0.0181798
0.0254379
0.034216
0.0448232
0.0575579
0.0727184
0.0906232
0.111657
0.136332
0.165239
0.198873
0.24045
0.00467787
0.0141847
0.0241432
0.034849
0.04659
0.0596442
0.0742804
0.0907661
0.109391
0.130521
0.154711
0.182913
0.216578
0.256681
0.296473
0.00700595
0.0211468
0.0356727
0.0508348
0.0668761
0.0840288
0.102514
0.122551
0.144382
0.168347
0.195059
0.225829
0.263543
0.314848
0.398709
0.00924931
0.0278561
0.0467852
0.0662456
0.0864363
0.107542
0.12973
0.15315
0.177948
0.204321
0.232674
0.26406
0.301165
0.35056
0.427774
0.0114224
0.034356
0.0575536
0.0811847
0.105407
0.130358
0.15615
0.182851
0.210474
0.238973
0.268273
0.298462
0.330338
0.367101
0.419417
0.0135386
0.0406868
0.0680458
0.0957488
0.123916
0.152645
0.181997
0.211968
0.242446
0.27312
0.30334
0.331833
0.356189
0.372982
0.389845
0.0156102
0.0468857
0.0783237
0.110026
0.14208
0.174554
0.207473
0.240792
0.274329
0.307633
0.339693
0.368219
0.387346
0.378949
0.273363
0.0176485
0.0529858
0.0884426
0.124093
0.159999
0.196207
0.23273
0.269521
0.306424
0.343056
0.378583
0.411274
0.437671
0.452526
0.463285
0.0196633
0.0590171
0.0984515
0.138016
0.177753
0.217696
0.257858
0.29823
0.338755
0.379287
0.419516
0.458837
0.496075
0.529078
0.55331
0.0216637
0.0650064
0.108394
0.151853
0.19541
0.239084
0.2829
0.326892
0.37113
0.41577
0.461151
0.507979
0.55751
0.611837
0.677834
0.0236583
0.0709786
0.11831
0.165658
0.213028
0.260428
0.307879
0.355441
0.403278
0.451782
0.501846
0.555358
0.615704
0.686615
0.759484
0.0256546
0.0769569
0.128237
0.17948
0.230668
0.281787
0.332836
0.383859
0.435017
0.486758
0.540218
0.598111
0.66665
0.760164
0.916436
0.0276604
0.0829638
0.138214
0.193373
0.248399
0.303246
0.357869
0.412241
0.466402
0.520592
0.575591
0.633598
0.700336
0.790271
0.940209
0.0296827
0.089021
0.148277
0.207391
0.266296
0.324909
0.383129
0.440823
0.497818
0.553914
0.608956
0.66315
0.717991
0.778842
0.859423
0.0317279
0.0951484
0.158461
0.221587
0.284437
0.346896
0.408809
0.469942
0.529906
0.588014
0.642988
0.692381
0.731534
0.753836
0.773352
0.033802
0.101364
0.168796
0.236007
0.302889
0.36931
0.435084
0.499925
0.563328
0.624335
0.680973
0.728849
0.756827
0.730886
0.520044
0.0359096
0.107681
0.179308
0.250686
0.321703
0.392221
0.462061
0.530956
0.598458
0.66373
0.725115
0.779262
0.819611
0.836442
0.842651
0.0380546
0.114112
0.190012
0.265648
0.340902
0.415651
0.489746
0.563006
0.635179
0.705862
0.774349
0.839378
0.898779
0.949488
0.987409
0.0402396
0.120664
0.200922
0.280903
0.360493
0.43958
0.518062
0.595863
0.672979
0.749554
0.826045
0.90352
0.984061
1.07151
1.17739
0.0424668
0.127343
0.212046
0.296459
0.380471
0.463976
0.546901
0.629247
0.711199
0.793341
0.877114
0.965632
1.06462
1.18085
1.3018
0.044738
0.134154
0.22339
0.312324
0.400838
0.48882
0.576192
0.662957
0.749333
0.836037
0.924949
1.02058
1.13328
1.28701
1.5439
0.0470546
0.141102
0.234963
0.328509
0.42161
0.514132
0.605951
0.696986
0.787283
0.877245
0.968188
1.06377
1.17351
1.32166
1.57077
0.049418
0.148191
0.246774
0.345032
0.44282
0.539974
0.636302
0.731573
0.825511
0.917813
1.00827
1.09725
1.18713
1.28632
1.41433
0.0518286
0.155424
0.258829
0.361908
0.464506
0.566432
0.667432
0.76713
0.864914
0.959701
1.04945
1.1302
1.19433
1.23107
1.26289
0.0542859
0.162798
0.271129
0.379146
0.486693
0.593574
0.699511
0.80406
0.906436
1.00512
1.09695
1.1748
1.22058
1.17933
0.83932
0.0567881
0.17031
0.283666
0.396735
0.509376
0.621413
0.732597
0.84254
0.950558
1.05534
1.15422
1.24177
1.30732
1.33516
1.34539
0.0593314
0.177947
0.296419
0.414646
0.532512
0.649882
0.766589
0.8824
0.996965
1.10968
1.21942
1.32413
1.42029
1.50331
1.56828
0.0619107
0.185694
0.309361
0.432832
0.556024
0.678851
0.801244
0.923169
1.04469
1.16611
1.28816
1.41252
1.54243
1.68409
1.85555
0.0645198
0.193531
0.322456
0.451237
0.579819
0.708161
0.836266
0.964257
1.09253
1.22212
1.35535
1.49714
1.65648
1.84425
2.04212
0.0671519
0.201437
0.335667
0.469804
0.603812
0.73767
0.871408
1.00519
1.13951
1.27563
1.41665
1.56966
1.75084
1.99749
2.40546
0.0697997
0.209391
0.348959
0.488483
0.627937
0.767298
0.906559
1.04579
1.18525
1.32579
1.46966
1.6227
1.7998
2.03879
2.4376
0.0724556
0.217371
0.362297
0.507232
0.652156
0.797029
0.941771
1.08625
1.23029
1.37368
1.51636
1.65913
1.80582
1.96921
2.17682
0.0751115
0.225353
0.375645
0.526009
0.676439
0.826884
0.977198
1.12706
1.27581
1.42208
1.56304
1.69291
1.8003
1.869
1.93344
0.0777573
0.233307
0.388957
0.54476
0.700739
0.856861
1.01297
1.16868
1.32309
1.47419
1.61748
1.7424
1.82167
1.77182
1.26998
0.0803817
0.241199
0.402177
0.563409
0.724967
0.886875
1.04906
1.21124
1.37269
1.53176
1.68473
1.82367
1.93273
1.9886
2.02193
0.0829709
0.248989
0.415233
0.581851
0.748977
0.916729
1.08518
1.25433
1.42398
1.59357
1.76176
1.92577
2.08076
2.22111
2.34345
0.0855099
0.256628
0.428044
0.599957
0.772576
0.946124
1.12085
1.2971
1.47534
1.65639
1.84174
2.0342
2.23902
2.46617
2.74293
0.0879826
0.264069
0.440521
0.617591
0.795554
0.974724
1.15551
1.33851
1.52477
1.71624
1.91681
2.13411
2.3818
2.67686
2.99647
0.0903736
0.271262
0.452579
0.634623
0.817715
1.00223
1.18865
1.37769
1.5706
1.76979
1.98029
2.21299
2.49173
2.87057
3.48595
0.0926684
0.278165
0.464145
0.650941
0.838909
1.02844
1.22
1.41422
1.6121
1.8155
2.02841
2.25996
2.53218
2.9001
3.50709
0.0948541
0.284738
0.475153
0.666462
0.859036
1.05326
1.24953
1.44823
1.64978
1.85464
2.06362
2.27875
2.5062
2.76366
3.08345
0.0969195
0.290949
0.485552
0.681117
0.878036
1.07669
1.27739
1.48029
1.68518
1.89094
2.09459
2.28904
2.45942
2.584
2.7116
0.0988544
0.296766
0.495291
0.694845
0.895851
1.09871
1.30373
1.511
1.71998
1.92874
2.13197
2.31611
2.44446
2.4023
1.74162
0.10065
0.302163
0.504323
0.707578
0.912396
1.11925
1.32855
1.54054
1.75496
1.97037
2.18265
2.38199
2.54794
2.65015
2.73179
0.102298
0.307115
0.512602
0.719238
0.927544
1.1381
1.35151
1.56841
1.78927
2.0142
2.24234
2.4711
2.69568
2.91234
3.12882
0.103795
0.311606
0.520091
0.729747
0.941146
1.15497
1.37208
1.59353
1.82077
2.05579
2.30162
2.56317
2.84895
3.1747
3.57779
0.105141
0.315632
0.526772
0.739054
0.953074
1.16959
1.38964
1.61466
1.84687
2.0899
2.35
2.63843
2.9745
3.38338
3.84784
0.106341
0.319212
0.532666
0.747162
0.963276
1.18178
1.40375
1.6308
1.86549
2.11215
2.37872
2.68065
3.04951
3.55349
4.3567
0.107413
0.322389
0.53784
0.754152
0.97183
1.19156
1.41435
1.64166
1.87579
2.12058
2.38291
2.67643
3.0307
3.51585
4.31599
0.108379
0.325239
0.54242
0.760201
0.978961
1.19924
1.42181
1.64778
1.87871
2.11682
2.36545
2.63005
2.921
3.25949
3.66704
0.109276
0.327867
0.546586
0.765573
0.985043
1.20533
1.42693
1.65047
1.87663
2.10577
2.33692
2.56539
2.77831
2.95518
3.15634
0.110147
0.330406
0.55057
0.770612
0.99056
1.21052
1.4307
1.65134
1.87249
2.09333
2.31026
2.51154
2.66067
2.63403
1.93126
0.111042
0.333011
0.55464
0.775718
0.996068
1.21557
1.43416
1.65185
1.86856
2.08361
2.29448
2.49393
2.66507
2.78242
2.90044
0.112017
0.335852
0.559091
0.781331
1.00217
1.22124
1.43824
1.65306
1.86578
2.07678
2.28662
2.49599
2.70683
2.93035
3.21585
0.113129
0.339107
0.564237
0.787915
1.0095
1.22834
1.44385
1.65571
1.86419
2.07074
2.27909
2.49704
2.73976
3.03525
3.43182
0.114434
0.34295
0.570389
0.795951
1.01873
1.23775
1.45199
1.66071
1.86392
2.06345
2.26488
2.48087
2.73605
3.06996
3.51561
0.115982
0.34754
0.577842
0.805913
1.03058
1.25046
1.46396
1.66953
1.86621
2.05484
2.24054
2.43749
2.67764
3.02706
3.61769
0.11781
0.353
0.586841
0.818229
1.04575
1.26759
1.48143
1.68452
1.87408
2.04824
2.20839
2.36411
2.54334
2.81662
3.37765
0.119935
0.359394
0.597538
0.83322
1.06487
1.29026
1.50633
1.7089
1.89263
2.05135
2.1793
2.27437
2.34371
2.40635
2.44155
0.122345
0.366696
0.609936
0.851001
1.0883
1.3194
1.54059
1.74633
1.92854
2.0758
2.17304
2.20248
2.14871
2.01512
1.89623
0.12499
0.374765
0.623834
0.871384
1.11602
1.35539
1.58555
1.80009
1.98868
2.13499
2.21383
2.18837
2.00915
1.61365
0.877275
0.127773
0.383318
0.638774
0.893769
1.14738
1.39774
1.64132
1.87183
2.07817
2.241
2.32703
2.28102
2.01977
1.44888
0.565361
0.130554
0.391924
0.65402
0.917093
1.18098
1.44476
1.70613
1.96032
2.19786
2.40035
2.53192
2.52313
2.2454
1.50117
0.229764
0.13315
0.400018
0.66857
0.939827
1.21462
1.4934
1.7759
2.06034
2.34189
2.60895
2.83428
2.952
2.79495
1.9195
-0.864994
0.135346
0.406934
0.681225
0.96008
1.24546
1.53944
1.84427
2.16234
2.49597
2.84656
3.21141
3.57166
3.8433
3.66343
1.39549
0.136918
0.411961
0.690689
0.975775
1.27027
1.57788
1.9034
2.2535
2.63827
3.0743
3.59182
4.2529
5.205
6.85693
10.5099
10.3012
6.52143
4.85689
3.92067
3.28476
2.79584
2.38967
2.03513
1.71517
1.41952
1.14139
0.875998
0.619682
0.369465
0.122771
0.775536
3.20354
3.44116
3.20718
2.88109
2.54988
2.23268
1.93202
1.64635
1.37329
1.11048
0.855715
0.607018
0.362548
0.120575
-1.53982
1.4068
2.35282
2.55754
2.48093
2.29419
2.0642
1.81848
1.56874
1.31993
1.07394
0.831197
0.591401
0.353888
0.117801
-0.220504
0.999269
1.77915
2.10318
2.15724
2.06854
1.90665
1.70772
1.49045
1.26458
1.03512
0.804606
0.574182
0.344225
0.114688
-0.0545338
0.897129
1.52199
1.83626
1.93268
1.89373
1.77481
1.60967
1.41812
1.21167
0.997001
0.777929
0.556622
0.33426
0.111459
0.233653
1.02186
1.48047
1.72059
1.80212
1.77444
1.67507
1.52993
1.35609
1.16446
0.96191
0.752783
0.53978
0.324592
0.108308
1.15783
1.37544
1.59065
1.71503
1.74737
1.70495
1.60708
1.47011
1.30641
1.12479
0.931366
0.730312
0.524442
0.315679
0.105386
1.65432
1.73067
1.7639
1.77335
1.74453
1.67394
1.56623
1.42884
1.26913
1.09329
0.906105
0.71117
0.511102
0.307823
0.102793
2.51082
2.1158
1.95365
1.85825
1.77067
1.6687
1.54599
1.40306
1.24305
1.06964
0.886212
0.695582
0.499983
0.301178
0.100584
2.76562
2.33921
2.09702
1.93769
1.80679
1.67787
1.53976
1.38912
1.22625
1.05293
0.871312
0.683434
0.491086
0.295771
0.0987724
2.79443
2.43468
2.18282
1.99739
1.84152
1.6934
1.54223
1.38366
1.21671
1.04199
0.860746
0.674384
0.484242
0.291532
0.097339
2.77751
2.4552
2.22247
2.03654
1.87087
1.71104
1.54983
1.38401