/*--------------------------------*- C++ -*----------------------------------*\
| =========                 |                                                 |
| \\      /  F ield         | OpenFOAM: The Open Source CFD Toolbox           |
|  \\    /   O peration     | Version:  5.x                                   |
|   \\  /    A nd           | Web:      www.OpenFOAM.org                      |
|    \\/     M anipulation  |                                                 |
\*---------------------------------------------------------------------------*/
FoamFile
{
    version     2.0;
    format      ascii;
    class       volScalarField;
    location    "1.6";
    object      gradTy;
}
// * * * * * * * * * * * * * * * * * * * * * * * * * * * * * * * * * * * * * //

dimensions      [0 -1 0 1 0 0 0];

internalField   nonuniform List<scalar> 
6300
(
32274
32222.1
32170.3
32118.5
32066.9
32015.5
31964.4
31913.5
31862.9
31812.7
31762.9
31713.6
31664.7
31616.4
31568.6
-0.0310482
-0.0932695
-0.155839
-0.218933
-0.282647
-0.346955
-0.411676
-0.476449
-0.540729
-0.603795
-0.664808
-0.722908
-0.777356
-0.827701
-0.873935
-0.0516049
-0.155044
-0.259126
-0.364181
-0.470402
-0.577779
-0.686038
-0.794592
-0.902512
-1.00854
-1.11117
-1.20881
-1.30003
-1.38391
-1.46036
-0.0719425
-0.216175
-0.361423
-0.508236
-0.656967
-0.807679
-0.960058
-1.11331
-1.26612
-1.41662
-1.56245
-1.70105
-1.82998
-1.9475
-2.05319
-0.0919238
-0.276284
-0.462146
-0.650361
-0.84153
-1.03589
-1.23317
-1.43244
-1.63201
-1.8293
-2.02092
-2.20291
-2.37129
-2.52291
-2.65653
-0.111378
-0.334863
-0.560481
-0.789484
-1.02285
-1.26111
-1.5042
-1.75119
-2.00008
-2.24755
-2.48892
-2.71828
-2.92925
-3.11618
-3.27609
-0.130103
-0.391299
-0.655412
-0.924218
-1.19922
-1.48145
-1.77126
-2.06797
-2.36949
-2.67184
-2.96883
-3.25198
-3.51117
-3.73644
-3.92106
-0.147836
-0.444803
-0.745617
-1.05271
-1.36829
-1.69414
-2.03134
-2.37986
-2.73797
-3.10139
-3.46249
-3.80955
-4.12696
-4.39727
-4.60621
-0.164266
-0.494433
-0.829496
-1.17266
-1.52702
-1.89538
-2.27999
-2.68207
-3.10102
-3.53316
-3.97008
-4.39666
-4.78973
-5.11939
-5.35614
-0.179048
-0.539135
-0.905218
-1.28136
-1.67167
-2.08026
-2.51105
-2.9673
-3.45076
-3.96004
-4.48791
-5.01716
-5.51578
-5.93424
-6.2129
-0.191827
-0.577807
-0.970831
-1.3758
-1.79794
-2.24286
-2.71655
-3.22521
-3.77456
-4.36823
-5.00423
-5.66816
-6.32176
-6.88862
-7.25049
-0.202268
-0.609402
-1.02444
-1.45301
-1.90135
-2.37657
-2.88697
-3.44232
-4.05395
-4.73397
-5.49247
-6.32924
-7.21418
-8.04756
-8.6062
-0.210101
-0.633061
-1.06444
-1.51037
-1.9778
-2.47501
-3.01232
-3.60305
-4.26481
-5.02111
-5.90221
-6.94185
-8.15767
-9.48068
-10.558
-0.215161
-0.648259
-1.08985
-1.54615
-2.02435
-2.53324
-3.08416
-3.69263
-4.38102
-5.18326
-6.15315
-7.37789
-8.99344
-11.1589
-13.7152
-0.217433
-0.654928
-1.10047
-1.55993
-2.04011
-2.54932
-3.09834
-3.7022
-4.38324
-5.17756
-6.14892
-7.42267
-9.27888
-12.4459
-19.1754
31525.4
31486.5
31448
31410
31372.5
31335.5
31299
31263
31227.6
31192.7
31158.4
31124.6
31091.5
31059
31027.1
30995.8
30965.2
30935.2
30905.9
30877.1
30849
30821.5
30794.6
30768.3
30742.5
30717.3
30692.6
30668.3
30644.6
30621.3
30598.4
30575.8
30553.7
30531.8
30510.3
30489.1
30468
30447.3
30426.6
30406.2
30385.9
30365.7
30345.6
30325.6
30305.6
30285.6
30265.6
30245.6
30225.5
30205.3
30185
30164.5
30143.9
30123.1
30102
30080.7
30059.1
30037.2
30015
29992.4
29969.4
29946
29922.2
29897.9
29873.2
29848
29822.2
29796
29769.2
29741.9
29714
29685.6
29656.6
29627
29596.8
29566.1
29534.7
29502.8
29470.3
29437.2
29403.6
29369.3
29334.5
29299.1
29263.1
29226.6
29189.6
29152
29113.9
29075.3
-0.913037
-0.946783
-0.979517
-1.01207
-1.04518
-1.07933
-1.1146
-1.1507
-1.18688
-1.2221
-1.25517
-1.28489
-1.31019
-1.33025
-1.34453
-1.35269
-1.35459
-1.35019
-1.3395
-1.32256
-1.29951
-1.27054
-1.23597
-1.19625
-1.1519
-1.10353
-1.05178
-0.997265
-0.940604
-0.882379
-0.823139
-0.76338
-0.703529
-0.643923
-0.584797
-0.526295
-0.468488
-0.411406
-0.355062
-0.299462
-0.244601
-0.190434
-0.136849
-0.0836519
-0.0305662
0.0227396
0.0766046
0.13132
0.187079
0.243946
0.301843
0.360569
0.419823
0.479234
0.538389
0.596847
0.654159
0.709885
0.763616
0.815005
0.863793
0.909814
0.952982
0.993266
1.03065
1.06509
1.09653
1.12488
1.15005
1.17204
1.19086
1.20662
1.21946
1.22949
1.2368
1.24142
1.24335
1.24257
1.23915
1.23318
1.22482
1.21422
1.20148
1.18652
1.16912
1.14887
1.12527
1.09778
1.06597
1.02953
-1.52446
-1.57947
-1.6327
-1.6858
-1.74022
-1.79695
-1.85625
-1.91756
-1.9795
-2.04013
-2.09716
-2.14837
-2.19185
-2.22618
-2.25049
-2.26434
-2.26759
-2.26023
-2.24232
-2.21392
-2.17517
-2.12638
-2.06807
-2.00101
-1.92614
-1.84453
-1.75727
-1.66544
-1.57008
-1.47217
-1.37265
-1.27238
-1.17209
-1.07238
-0.973612
-0.876
-0.779614
-0.684464
-0.590554
-0.497909
-0.406556
-0.316464
-0.227476
-0.139265
-0.0513247
0.0369706
0.126274
0.217151
0.309974
0.404863
0.501671
0.60002
0.699358
0.79903
0.898314
0.996454
1.09267
1.18619
1.27629
1.36235
1.44392
1.52075
1.59274
1.65991
1.72227
1.77977
1.8323
1.87966
1.92166
1.95824
1.98945
2.01551
2.0367
2.05328
2.06542
2.07313
2.07634
2.07498
2.0691
2.0589
2.04473
2.02696
2.00583
1.98129
1.95293
1.92
1.88152
1.83645
1.78392
1.72333
-2.14045
-2.21454
-2.28593
-2.35747
-2.43177
-2.51069
-2.59483
-2.68331
-2.77386
-2.86313
-2.94734
-3.02279
-3.08648
-3.13635
-3.17132
-3.19106
-3.19566
-3.1853
-3.16008
-3.11999
-3.06511
-2.99574
-2.91261
-2.81685
-2.70994
-2.5935
-2.4692
-2.33858
-2.2031
-2.06416
-1.92312
-1.78128
-1.63975
-1.49938
-1.36069
-1.22387
-1.0889
-0.955685
-0.824182
-0.694465
-0.566674
-0.440893
-0.316988
-0.194499
-0.0726187
0.0497148
0.173634
0.300122
0.429827
0.56294
0.699194
0.837944
0.978303
1.11926
1.25975
1.39869
1.53492
1.66726
1.7946
1.91596
2.03069
2.13845
2.23925
2.33326
2.42064
2.5014
2.57529
2.6419
2.70084
2.75191
2.7952
2.83114
2.86031
2.88322
2.90015
2.91104
2.91563
2.91363
2.905
2.89008
2.86956
2.84427
2.81482
2.7813
2.74308
2.69888
2.647
2.58562
2.51322
2.42877
-2.76403
-2.85355
-2.93901
-3.0252
-3.11674
-3.21699
-3.32723
-3.44617
-3.5701
-3.69352
-3.81017
-3.91421
-4.00107
-4.06804
-4.11413
-4.13962
-4.14531
-4.13181
-4.09927
-4.04742
-3.97594
-3.88497
-3.77536
-3.64878
-3.50745
-3.35383
-3.19023
-3.01871
-2.84109
-2.65916
-2.47475
-2.28972
-2.1057
-1.92393
-1.74503
-1.56904
-1.39562
-1.2244
-1.05519
-0.88819
-0.723837
-0.562554
-0.404392
-0.248785
-0.0944875
0.0602576
0.217378
0.378554
0.544867
0.716593
0.893225
1.07366
1.2565
1.44027
1.62356
1.80493
1.98287
2.15567
2.32164
2.47927
2.6276
2.76631
2.89566
3.01627
3.12869
3.23304
3.32887
3.41532
3.49149
3.55689
3.61166
3.65665
3.69304
3.72188
3.74367
3.75814
3.76451
3.76193
3.75005
3.72941
3.70136
3.66767
3.62977
3.58814
3.54192
3.48893
3.42622
3.35073
3.25987
3.15199
-3.39934
-3.49835
-3.59094
-3.6852
-3.78914
-3.90892
-4.04711
-4.20187
-4.3671
-4.53366
-4.6912
-4.83035
-4.94433
-5.0298
-5.08661
-5.11672
-5.12259
-5.10576
-5.0663
-5.00311
-4.91486
-4.80104
-4.66257
-4.50195
-4.32269
-4.12853
-3.92269
-3.70763
-3.48531
-3.25775
-3.02731
-2.79669
-2.56844
-2.34438
-2.1252
-1.9105
-1.6992
-1.49021
-1.28303
-1.07811
-0.876586
-0.679721
-0.488116
-0.301184
-0.117001
0.0673811
0.255282
0.449595
0.652117
0.863194
1.08179
1.30594
1.53336
1.762
1.99013
2.21616
2.43822
2.65395
2.86068
3.05601
3.23841
3.40765
3.56468
3.71112
3.8484
3.97697
4.09598
4.20357
4.29771
4.37719
4.44225
4.49459
4.53668
4.57074
4.59775
4.61697
4.62634
4.62365
4.60776
4.57944
4.54135
4.49716
4.45013
4.40167
4.35054
4.29301
4.22391
4.13803
4.03112
3.90056
-4.05344
-4.15243
-4.24056
-4.33134
-4.43889
-4.57451
-4.74333
-4.94271
-5.16246
-5.38702
-5.59899
-5.78302
-5.92893
-6.03308
-6.09779
-6.12901
-6.13283
-6.11256
-6.06776
-5.99513
-5.89087
-5.75283
-5.58192
-5.38218
-5.15961
-4.92028
-4.66863
-4.40717
-4.13728
-3.86065
-3.58028
-3.30039
-3.02528
-2.75791
-2.49902
-2.24715
-1.99954
-1.75346
-1.50768
-1.26316
-1.02264
-0.789309
-0.565092
-0.349587
-0.139748
0.0695034
0.284032
0.508912
0.747164
0.999099
1.26252
1.53368
1.80868
2.08466
2.35995
2.63335
2.90295
3.16545
3.41644
3.65164
3.86848
4.06688
4.24929
4.4195
4.58098
4.73501
4.87992
5.01158
5.12541
5.21863
5.29156
5.34768
5.39227
5.43018
5.46347
5.49037
5.50596
5.5048
5.48379
5.44397
5.39055
5.33117
5.27296
5.21945
5.16877
5.11411
5.04614
4.95593
4.83675
4.68466
-4.73827
-4.82218
-4.8864
-4.95336
-5.0483
-5.1924
-5.39572
-5.65445
-5.95111
-6.25881
-6.54726
-6.79087
-6.97395
-7.09346
-7.15752
-7.18104
-7.17803
-7.15501
-7.10958
-7.03301
-6.91581
-6.75224
-6.54309
-6.29556
-6.02095
-5.73
-5.42894
-5.1191
-4.79917
-4.46916
-4.13277
-3.79739
-3.47117
-3.15939
-2.86287
-2.57782
-2.2978
-2.01639
-1.73063
-1.44252
-1.15843
-0.885815
-0.629551
-0.389839
-0.161638
0.0640511
0.297916
0.549028
0.822576
1.11855
1.43224
1.75602
2.08274
2.4085
2.7327
3.05622
3.37812
3.69378
3.99518
4.27402
4.52537
4.74947
4.95178
5.14081
5.32462
5.50657
5.6833
5.84563
5.9832
6.08971
6.1655
6.21781
6.25793
6.2967
6.33886
6.3805
6.41018
6.41498
6.38737
6.32854
6.24881
6.16394
6.08951
6.03361
5.99321
5.95484
5.90082
5.81598
5.69015
5.51818
-5.47506
-5.5202
-5.52815
-5.53489
-5.58669
-5.72475
-5.96808
-6.31138
-6.72371
-7.15816
-7.55997
-7.88576
-8.11039
-8.23354
-8.2755
-8.27117
-8.25196
-8.2296
-8.19617
-8.12928
-8.00746
-7.8172
-7.55944
-7.24786
-6.90576
-6.55424
-6.20182
-5.8455
-5.47551
-5.08681
-4.68374
-4.28118
-3.89621
-3.53887
-3.21014
-2.90122
-2.59801
-2.28556
-1.95695
-1.6161
-1.27766
-0.95878
-0.670172
-0.413511
-0.179908
0.0468206
0.286944
0.556802
0.865649
1.21245
1.58735
1.97405
2.35815
2.73452
3.10638
3.4814
3.86224
4.24258
4.60635
4.93591
5.22145
5.46334
5.67335
5.86954
6.07085
6.28554
6.50729
6.7152
6.8856
7.00491
7.07311
7.10539
7.12541
7.15819
7.21488
7.28773
7.35007
7.37171
7.33578
7.2431
7.11435
6.98158
6.87927
6.82534
6.81461
6.818
6.79979
6.73497
6.60987
6.42036
-6.30222
-6.27142
-6.17125
-6.05099
-6.00017
-6.10462
-6.39553
-6.86787
-7.46344
-8.10347
-8.68115
-9.12531
-9.39192
-9.48954
-9.45912
-9.38171
-9.32942
-9.31916
-9.32994
-9.3037
-9.19671
-8.97845
-8.65237
-8.24322
-7.80328
-7.37894
-6.97953
-6.59081
-6.17805
-5.72441
-5.23328
-4.73898
-4.28084
-3.87656
-3.52837
-3.21588
-2.91106
-2.57758
-2.20052
-1.78589
-1.36846
-0.987962
-0.664651
-0.40389
-0.188232
0.0102929
0.233084
0.508297
0.853867
1.2656
1.72513
2.19543
2.64424
3.06653
3.47495
3.89763
4.34645
4.8146
5.26603
5.6604
5.97954
6.22225
6.41388
6.58992
6.79681
7.05328
7.35009
7.63764
7.86034
7.99244
8.03118
8.00931
7.97318
7.98389
8.06625
8.20869
8.34714
8.40992
8.36447
8.20817
7.98428
7.75391
7.59796
7.5535
7.61431
7.71093
7.76455
7.73951
7.62108
7.41847
-7.2901
-7.12187
-6.84262
-6.46639
-6.18929
-6.21507
-6.56058
-7.24565
-8.13781
-9.13717
-9.99319
-10.6191
-10.9153
-10.9285
-10.709
-10.4546
-10.3449
-10.377
-10.5156
-10.593
-10.5448
-10.2936
-9.86361
-9.28164
-8.67706
-8.1665
-7.74067
-7.36962
-6.93835
-6.41495
-5.78634
-5.14372
-4.58695
-4.13263
-3.7944
-3.51876
-3.2647
-2.9317
-2.49764
-1.95917
-1.40564
-0.934424
-0.568784
-0.32915
-0.171786
-0.0611641
0.10368
0.358337
0.746603
1.24962
1.84702
2.44726
2.96796
3.41788
3.82224
4.2754
4.80197
5.40978
6.00691
6.4922
6.84651
7.0535
7.17559
7.26451
7.44994
7.76145
8.20468
8.65186
8.96386
9.11267
9.07472
8.93189
8.75162
8.70448
8.82914
9.13342
9.45116
9.60196
9.55076
9.26853
8.86148
8.41707
8.1541
8.12806
8.36048
8.66383
8.84068
8.87668
8.75174
8.55261
-8.57137
-8.13139
-7.65301
-6.73866
-5.94229
-5.86544
-6.23714
-7.32574
-8.65833
-10.3778
-11.6371
-12.5882
-12.847
-12.703
-12.0095
-11.3199
-11.1568
-11.282
-11.7899
-12.0639
-12.1859
-11.8669
-11.2943
-10.3532
-9.41602
-8.8326
-8.42345
-8.23567
-7.83186
-7.25748
-6.36007
-5.42526
-4.74592
-4.2219
-3.97066
-3.79096
-3.73238
-3.4317
-2.94543
-2.15436
-1.32449
-0.728983
-0.291581
-0.13607
-0.0881698
-0.210837
-0.155162
0.0159117
0.4741
1.0978
1.96498
2.81385
3.39384
3.83514
4.09951
4.54776
5.14084
6.02072
6.90928
7.51309
7.92617
8.00753
7.98555
7.80063
7.92208
8.28051
9.05422
9.86141
10.3031
10.5026
10.27
9.90915
9.3391
9.17847
9.33417
10.0396
10.7964
11.0858
11.0706
10.5095
9.7934
8.81989
8.37
8.33138
9.00541
9.79983
10.1205
10.2465
9.99023
9.88835
-10.4403
-9.19593
-9.09112
-6.84074
-4.65874
-4.86946
-4.88099
-7.0542
-8.62146
-12.2809
-13.7243
-15.5542
-15.3583
-15.2685
-13.3042
-11.4266
-11.5535
-11.6357
-13.401
-13.7536
-14.4617
-13.8051
-13.2555
-11.4189
-9.64541
-9.24762
-8.7873
-9.41266
-8.97084
-8.56503
-6.98751
-5.33881
-4.68111
-3.91825
-4.04378
-3.88866
-4.54857
-4.19889
-3.83207
-2.40537
-0.905802
-0.295839
0.391583
0.212018
0.24107
-0.617334
-0.580234
-0.740024
-0.0368469
0.595284
2.10919
3.56751
4.01936
4.50707
4.11191
4.6115
5.0666
6.61903
8.22157
8.80848
9.48335
9.11022
9.02999
7.8954
8.05274
8.20136
9.85529
11.597
11.9909
12.5144
11.6497
11.1874
9.33675
9.19663
9.04727
10.8715
12.8145
13.0078
13.3763
11.9736
11.0957
8.46843
7.99342
7.50823
9.47679
11.6178
11.6805
12.1668
11.0062
11.5849
-13.9471
-8.61948
-13.6184
-6.84394
0.0709716
-4.15952
-0.411076
-7.65422
-5.57088
-17.3739
-15.254
-21.4364
-17.7155
-20.5324
-14.473
-8.64583
-12.0134
-9.5645
-17.0453
-14.9301
-18.7017
-15.5881
-17.069
-12.3927
-7.89285
-9.75175
-7.58689
-12.1255
-10.0572
-11.559
-7.7167
-3.82452
-4.76697
-2.33459
-4.52037
-2.8121
-6.81798
-4.9903
-6.24445
-2.76091
0.794315
0.0261299
2.32348
0.259961
1.84839
-2.31325
-0.721835
-2.7387
-0.445684
-1.1772
2.33316
5.77018
4.59294
6.44988
2.83544
4.73871
3.41167
7.14451
10.9957
9.9765
12.5489
9.79033
11.5918
6.12884
8.19492
5.95348
10.5288
15.2722
13.4909
16.524
12.4489
14.4633
6.86989
9.22664
5.9169
11.531
17.3506
14.6759
18.2309
12.6803
14.9155
5.01623
7.63002
3.1502
9.69842
16.4271
12.6293
16.4571
9.51634
14.5249
-25.4284
6.82777
-35.0987
-7.04877
20.8503
-14.939
19.8869
-21.6842
17.4762
-42.5156
-4.82839
-41.5789
-10.6584
-38.5779
-15.307
7.37541
-20.8487
6.80555
-34.5078
-7.62975
-32.8565
-10.7552
-29.7488
-13.1125
3.01647
-16.05
3.26665
-24.3524
-6.00243
-22.2486
-8.51766
4.6518
-9.71249
5.89941
-10.6043
6.49295
-17.4878
-1.34395
-15.4793
-3.21965
8.72032
-4.06616
10.5352
-4.95086
11.7359
-12.2938
4.33239
-10.9439
3.50066
-9.0582
2.6627
14.6175
0.797314
16.2716
-6.38669
9.51749
-5.52966
7.49947
20.7835
5.9726
23.2911
3.90398
24.6144
-6.47975
14.5398
-6.11079
10.9602
28.343
8.05788
30.7695
4.47884
31.5744
-9.92538
17.4162
-10.064
11.8943
34.1185
7.37299
36.1975
2.17547
36.2088
-16.4548
17.4814
-17.0882
9.6602
36.3943
2.59704
36.2541
-9.18039
25.2627
29032.4
28984.8
28936.6
28887.8
28838.5
28788.7
28738.4
28687.7
28636.7
28585.4
28533.9
28482.1
28430.2
28378.2
28326.1
0.984304
0.928427
0.866735
0.800299
0.730393
0.658318
0.585265
0.512216
0.4399
0.368783
0.299091
0.230837
0.163866
0.0978969
0.0325607
1.64766
1.55372
1.44971
1.33759
1.21966
1.09823
0.975398
0.852849
0.731812
0.613043
0.496878
0.383295
0.27199
0.162451
0.0540243
2.32229
2.18899
2.04071
1.88061
1.71233
1.53946
1.36515
1.19188
1.02138
0.854642
0.692042
0.533447
0.37833
0.225882
0.0751048
3.01401
2.83921
2.6435
2.43177
2.20953
1.98205
1.75378
1.52807
1.30711
1.09203
0.883149
0.680083
0.481976
0.287627
0.0956121
3.73003
3.51035
3.2623
2.99343
2.71193
2.42536
2.13977
1.85941
1.58683
1.32315
1.06837
0.82171
0.581832
0.347017
0.115322
4.47988
4.21
3.90206
3.56781
3.2195
2.86774
2.52051
2.1829
1.85757
1.54524
1.24537
0.95649
0.676578
0.403262
0.133971
5.27644
4.94791
4.5683
4.15641
3.73067
3.30576
2.89171
2.49413
2.11521
1.7548
1.41129
1.08222
0.764672
0.455449
0.151257
6.13766
5.73676
5.26672
4.75881
4.24103
3.73308
3.24661
2.78679
2.35434
1.94738
1.56267
1.19637
0.844374
0.502568
0.166849
7.09041
6.59391
6.00232
5.3705
4.74108
4.13881
3.575
3.0522
2.56801
2.11766
1.69558
1.29611
0.913827
0.543561
0.180404
8.18046
7.545
6.77722
5.97897
5.21294
4.50545
3.8622
3.27904
2.74786
2.25965
1.80581
1.37862
0.971199
0.577408
0.191594
9.50078
8.62899
7.583
6.55571
5.62581
4.80722
4.08898
3.45378
2.88471
2.36722
1.88934
1.44127
1.01489
0.603241
0.200146
11.2701
9.88711
8.36966
7.03568
5.92749
5.00839
4.23251
3.5623
2.96992
2.43513
1.94298
1.48216
1.04378
0.62048
0.20588
14.0774
11.2788
8.97173
7.28933
6.03971
5.06607
4.27021
3.5929
2.99749
2.4603
1.96519
1.50055
1.05753
0.628978
0.208754
19.1953
12.1785
8.94926
7.10998
5.87542
4.94558
4.18923
3.54154
2.96679
2.44331
1.95683
1.49721
1.05673
0.629103
0.208894
-0.217281
-0.654213
-1.09838
-1.55499
-2.02997
-2.53033
-3.06495
-3.64566
-4.28947
-5.02275
-5.89052
-6.97864
-8.47275
-10.8309
-15.3188
-0.215306
-0.647964
-1.08684
-1.5363
-2.00111
-2.4866
-2.99894
-3.54539
-4.13464
-4.77672
-5.48129
-6.24778
-7.01792
-7.4558
-5.91549
-0.211896
-0.637366
-1.06789
-1.50688
-1.95782
-2.42417
-2.90917
-3.41532
-3.94299
-4.48708
-5.02884
-5.51422
-5.79377
-5.45368
-3.38328
-0.207309
-0.623223
-1.043
-1.4691
-1.90376
-2.3487
-2.80466
-3.27025
-3.73978
-4.1988
-4.61531
-4.92366
-4.99969
-4.6529
-3.83667
-0.201809
-0.606363
-1.01366
-1.4253
-1.84247
-2.26553
-2.69341
-3.12237
-3.54372
-3.93971
-4.27662
-4.49459
-4.49862
-4.17806
-3.61489
-0.195649
-0.587565
-0.981252
-1.3776
-1.777
-2.17893
-2.58137
-2.97975
-3.36513
-3.72133
-4.02018
-4.21431
-4.22246
-3.87156
-2.58566
-0.189049
-0.567502
-0.946936
-1.32771
-1.70968
-2.0919
-2.47211
-2.84611
-3.20673
-3.54249
-3.83605
-4.06327
-4.19526
-4.21418
-4.25449
-0.182191
-0.546723
-0.911632
-1.27691
-1.64211
-2.00617
-2.3671
-2.72174
-3.06555
-3.39277
-3.69765
-3.97829
-4.24632
-4.54172
-4.92386
-0.175217
-0.525651
-0.876021
-1.22608
-1.57525
-1.92252
-2.26637
-2.60482
-2.93583
-3.25843
-3.57578
-3.90196
-4.27813
-4.80879
-5.76077
-0.168234
-0.504592
-0.84058
-1.17579
-1.50961
-1.84115
-2.16931
-2.49301
-2.81186
-3.12764
-3.44753
-3.79077
-4.20242
-4.78304
-5.77267
-0.161316
-0.483764
-0.80563
-1.12641
-1.44548
-1.76203
-2.07524
-2.38448
-2.68994
-2.99388
-3.30289
-3.6319
-4.00917
-4.473
-5.0022
-0.154517
-0.463316
-0.771388
-1.07817
-1.38301
-1.68515
-1.98384
-2.27847
-2.56899
-2.85646
-3.14419
-3.43936
-3.75561
-4.11732
-4.58221
-0.147872
-0.443347
-0.738
-1.03122
-1.32234
-1.61059
-1.89516
-2.17524
-2.45004
-2.71872
-2.98014
-3.23204
-3.47027
-3.6898
-3.88474
-0.141405
-0.423926
-0.705565
-0.985686
-1.26359
-1.5385
-1.80952
-2.07558
-2.33521
-2.5859
-2.82255
-3.0341
-3.19772
-3.27918
-3.33316
-0.135132
-0.405095
-0.674145
-0.941637
-1.20687
-1.46904
-1.72725
-1.98032
-2.2265
-2.46267
-2.6822
-2.86934
-2.98204
-2.88746
-2.06351
-0.129059
-0.386874
-0.643772
-0.899109
-1.1522
-1.40227
-1.64847
-1.88975
-2.12465
-2.35088
-2.5642
-2.75616
-2.91013
-3.00212
-3.08756
-0.12319
-0.36927
-0.614448
-0.858097
-1.09956
-1.33813
-1.57305
-1.80353
-2.02873
-2.24792
-2.46087
-2.66927
-2.88109
-3.12118
-3.44408
-0.117521
-0.352272
-0.586151
-0.818558
-1.04887
-1.27645
-1.50065
-1.7209
-1.93691
-2.14919
-2.36055
-2.57991
-2.83225
-3.18259
-3.79311
-0.112046
-0.335862
-0.558846
-0.78043
-1.00003
-1.21705
-1.43092
-1.64115
-1.8476
-2.05101
-2.25453
-2.46752
-2.71521
-3.06315
-3.68906
-0.106757
-0.320011
-0.532482
-0.743637
-0.952928
-1.15979
-1.36365
-1.56397
-1.76032
-1.95264
-2.1418
-2.33095
-2.52842
-2.75055
-2.9981
-0.101643
-0.304686
-0.507004
-0.708101
-0.907464
-1.10455
-1.29878
-1.48948
-1.67578
-1.85639
-2.02895
-2.1885
-2.32437
-2.42017
-2.52146
-0.09669
-0.28985
-0.482347
-0.67373
-0.863532
-1.05125
-1.23631
-1.41797
-1.59511
-1.76563
-1.92503
-2.06243
-2.14803
-2.08586
-1.49557
-0.0918851
-0.275458
-0.458437
-0.640423
-0.821004
-0.999744
-1.17615
-1.34956
-1.51897
-1.6825
-1.8363
-1.97225
-2.07419
-2.1182
-2.13689
-0.0872123
-0.261463
-0.435193
-0.608057
-0.779713
-0.949815
-1.118
-1.28387
-1.44685
-1.60605
-1.75985
-1.90562
-2.04047
-2.16805
-2.32616
-0.0826554
-0.247816
-0.412527
-0.5765
-0.739462
-0.901171
-1.06143
-1.22013
-1.37731
-1.53326
-1.68889
-1.8465
-2.01169
-2.19659
-2.42312
-0.0781987
-0.234467
-0.390351
-0.545614
-0.700044
-0.853489
-1.0059
-1.15741
-1.30856
-1.46062
-1.61645
-1.78205
-1.96913
-2.19612
-2.47142
-0.0738276
-0.221371
-0.368588
-0.515277
-0.661276
-0.806488
-0.950942
-1.09491
-1.23913
-1.3853
-1.53714
-1.70262
-1.89878
-2.16201
-2.57201
-0.0695296
-0.208492
-0.34717
-0.485393
-0.623021
-0.759975
-0.896286
-1.03218
-1.16829
-1.30598
-1.44828
-1.60181
-1.78176
-2.02588
-2.44375
-0.0652949
-0.195799
-0.326051
-0.455896
-0.585202
-0.713874
-0.841878
-0.969278
-1.09629
-1.22341
-1.35156
-1.4826
-1.6201
-1.76901
-1.91397
-0.0611161
-0.183271
-0.305198
-0.426751
-0.547795
-0.668203
-0.787854
-0.906601
-1.02419
-1.14005
-1.25276
-1.35885
-1.45045
-1.51481
-1.57622
-0.0569873
-0.170892
-0.284588
-0.397938
-0.510802
-0.623029
-0.734426
-0.844693
-0.953248
-1.05883
-1.1585
-1.24513
-1.29965
-1.26259
-0.90338
-0.0529038
-0.158648
-0.264204
-0.369442
-0.474227
-0.578401
-0.681752
-0.783941
-0.884334
-0.981653
-1.07325
-1.15366
-1.21239
-1.23405
-1.23575
-0.0488612
-0.146528
-0.244026
-0.341241
-0.438051
-0.534317
-0.629858
-0.724407
-0.817521
-0.90841
-0.995695
-1.07722
-1.1508
-1.21933
-1.31211
-0.0448547
-0.134516
-0.224031
-0.313303
-0.402232
-0.490711
-0.578625
-0.665844
-0.752221
-0.837626
-0.92209
-1.00627
-1.09266
-1.18771
-1.30178
-0.0408793
-0.122597
-0.204193
-0.285587
-0.366703
-0.447474
-0.527851
-0.607839
-0.687566
-0.767458
-0.848633
-0.933745
-1.02847
-1.14283
-1.28694
-0.0369298
-0.110756
-0.184483
-0.258048
-0.331395
-0.404487
-0.477323
-0.549991
-0.622771
-0.696364
-0.7724
-0.85451
-0.950592
-1.07725
-1.26788
-0.0330013
-0.0989774
-0.164875
-0.230645
-0.296246
-0.361656
-0.426889
-0.492043
-0.557385
-0.623543
-0.691907
-0.765541
-0.851442
-0.967199
-1.16727
-0.0290892
-0.0872473
-0.145345
-0.203345
-0.261213
-0.318928
-0.376489
-0.43394
-0.491407
-0.549159
-0.607719
-0.668025
-0.731517
-0.798558
-0.851939
-0.0251893
-0.0755533
-0.125874
-0.176123
-0.22627
-0.276288
-0.326145
-0.375806
-0.425207
-0.474183
-0.522282
-0.56827
-0.60909
-0.63937
-0.668387
-0.0212975
-0.063884
-0.106444
-0.148959
-0.191403
-0.233741
-0.275919
-0.317834
-0.359278
-0.399787
-0.43828
-0.472082
-0.493948
-0.481029
-0.344771
-0.0174099
-0.0522276
-0.0870381
-0.121833
-0.156594
-0.191291
-0.225858
-0.260171
-0.293977
-0.326765
-0.357505
-0.38416
-0.40293
-0.408313
-0.405361
-0.0135221
-0.0405713
-0.067635
-0.0947181
-0.121818
-0.148914
-0.175958
-0.202843
-0.229364
-0.255139
-0.279537
-0.301693
-0.321179
-0.341362
-0.383858
-0.00962915
-0.0289006
-0.0482108
-0.0675821
-0.0870304
-0.10656
-0.126152
-0.145753
-0.165249
-0.184448
-0.203096
-0.22106
-0.238913
-0.258889
-0.281959
-0.0057256
-0.0171986
-0.028737
-0.0403828
-0.052175
-0.0641476
-0.0763257
-0.0887205
-0.101325
-0.114116
-0.127103
-0.140482
-0.155147
-0.17424
-0.210362
-0.00180547
-0.00544727
-0.00918204
-0.0130725
-0.0171828
-0.0215797
-0.0263348
-0.0315278
-0.0372534
-0.0436294
-0.050811
-0.0589904
-0.0682796
-0.0777375
-0.0786885
0.00213741
0.00637251
0.0104875
0.0143992
0.0180192
0.0212493
0.0239738
0.0260488
0.0272857
0.0274364
0.0261974
0.0232932
0.0187314
0.012884
0.000801213
0.00610914
0.0182794
0.0303041
0.0420817
0.0535023
0.0644411
0.0747464
0.0842213
0.0925949
0.0994867
0.104385
0.106748
0.106661
0.107862
0.130778
0.0101154
0.0302908
0.050298
0.07002
0.0893299
0.108084
0.126108
0.143172
0.158949
0.172941
0.184356
0.191921
0.193721
0.187785
0.178402
0.0141614
0.0424222
0.0704956
0.0982518
0.125553
0.152245
0.178147
0.203028
0.226556
0.248203
0.267021
0.281116
0.286177
0.270123
0.187381
0.0182515
0.054687
0.0909186
0.126807
0.162207
0.196963
0.230906
0.263835
0.295485
0.325449
0.352986
0.376601
0.39332
0.398793
0.399165
0.0223896
0.0670964
0.111585
0.155708
0.199316
0.242257
0.28438
0.325541
0.365597
0.404397
0.441696
0.476892
0.508296
0.531025
0.527065
0.0265789
0.07966
0.13251
0.184974
0.236896
0.288127
0.338533
0.388023
0.436593
0.484404
0.531887
0.579831
0.629319
0.681814
0.745716
0.0308225
0.0923867
0.153707
0.214621
0.274963
0.334578
0.393331
0.451154
0.508128
0.564653
0.621779
0.681718
0.748276
0.824705
0.89252
0.0351231
0.105285
0.175192
0.24467
0.313543
0.381635
0.448784
0.514885
0.579984
0.644501
0.709737
0.779025
0.8604
0.973604
1.17409
0.0394832
0.118362
0.196977
0.275145
0.352672
0.429353
0.504972
0.57932
0.652255
0.723863
0.794899
0.867955
0.950445
1.06191
1.24889
0.0439046
0.131625
0.219077
0.30607
0.392395
0.477816
0.562049
0.644745
0.725458
0.803635
0.878677
0.95035
1.02039
1.09781
1.21142
0.0483882
0.145077
0.241498
0.337461
0.432751
0.527109
0.620201
0.711554
0.800433
0.885596
0.96481
1.03389
1.08522
1.10859
1.12389
0.0529332
0.158715
0.264241
0.369325
0.473758
0.577285
0.679565
0.780087
0.877995
0.971701
1.05799
1.12978
1.1695
1.12499
0.796434
0.0575373
0.172534
0.287292
0.401642
0.515397
0.628332
0.740155
0.85044
0.958481
1.06297
1.16126
1.24794
1.31229
1.33868
1.34698
0.0621961
0.186518
0.310627
0.434377
0.557609
0.680153
0.801815
0.922354
1.04144
1.15854
1.27262
1.38161
1.48145
1.56493
1.61471
0.066904
0.200651
0.334214
0.467471
0.6003
0.73259
0.864256
0.995279
1.12579
1.25621
1.38753
1.52166
1.66197
1.8146
2.00026
0.0716544
0.214911
0.358014
0.500863
0.643367
0.785461
0.927143
1.06856
1.2102
1.35327
1.50049
1.65741
1.83397
2.04134
2.25228
0.0764405
0.229279
0.381991
0.534494
0.686718
0.838618
0.990213
1.14169
1.29361
1.44745
1.60671
1.77954
1.98457
2.26563
2.73834
0.081256
0.243734
0.40611
0.568318
0.730293
0.891983
1.05337
1.2145
1.37569
1.53786
1.70352
1.87931
2.08239
2.35682
2.8138
0.0860949
0.258259
0.430345
0.6023
0.774063
0.945559
1.11668
1.28727
1.4571
1.62584
1.79329
1.96012
2.13067
2.32127
2.57252
0.090951
0.272836
0.454669
0.636412
0.818013
0.999388
1.18036
1.36057
1.53924
1.71471
1.8835
2.03834
2.16504
2.24358
2.31442
0.0958182
0.287447
0.479051
0.670616
0.862115
1.05349
1.24457
1.43494
1.6236
1.80822
1.98337
2.13611
2.23285
2.17125
1.5557
0.10069
0.302071
0.503457
0.70486
0.906298
1.10778
1.30925
1.51047
1.71075
1.90829
2.09881
2.27275
2.4106
2.4836
2.53023
0.10556
0.316688
0.527845
0.739072
0.950441
1.16207
1.37409
1.58665
1.7998
2.01322
2.22576
2.43443
2.63337
2.81425
2.96438
0.110424
0.331281
0.552177
0.773174
0.994396
1.21606
1.43853
1.66241
1.88863
2.11875
2.35536
2.60285
2.86866
3.16624
3.53303
0.11528
0.345843
0.57643
0.807109
1.03803
1.26948
1.50199
1.73651
1.97472
2.21974
2.47739
2.75852
3.08185
3.47015
3.89107
0.120131
0.360381
0.600611
0.840863
1.08127
1.32214
1.56404
1.80802
2.05607
2.31194
2.58308
2.88485
3.24991
3.75136
4.57339
0.124988
0.374926
0.624765
0.874493
1.12418
1.37406
1.6246
1.87669
2.13195
2.39348
2.66747
2.96719
3.32321
3.80991
4.61765
0.129869
0.389532
0.648985
0.90813
1.16694
1.4255
1.68407
1.94312
2.20345
2.46635
2.73393
3.01039
3.3057
3.64548
4.07539
0.134798
0.404275
0.673404
0.94198
1.20985
1.47691
1.74317
2.00862
2.27314
2.53591
2.79419
3.04044
3.25727
3.4184
3.59007
0.139807
0.419251
0.69819
0.9763
1.25328
1.52886
1.80279
2.07474
2.34399
2.60854
2.86275
3.09088
3.24744
3.18394
2.30827
0.14493
0.434567
0.723534
1.01138
1.29765
1.58192
1.86374
2.14268
2.41805
2.6883
2.94935
3.19095
3.39037
3.51342
3.62428
0.150203
0.450336
0.749638
1.04753
1.34339
1.63662
1.92665
2.21306
2.49562
2.77437
3.04938
3.32026
3.58626
3.8513
4.1388
0.155662
0.466668
0.776701
1.08505
1.39093
1.69351
1.99204
2.28604
2.57577
2.86298
3.1522
3.45288
3.78271
4.1735
4.68911
0.161337
0.483663
0.804911
1.12425
1.44071
1.75317
2.06053
2.36194
2.65761
2.9501
3.24698
3.56516
3.93672
4.40889
4.99016
0.167248
0.50139
0.834421
1.16542
1.49321
1.81633
2.13307
2.44178
2.74158
3.0341
3.32688
3.64026
4.02074
4.56841
5.50564
0.173397
0.519872
0.865314
1.20877
1.54891
1.88386
2.21114
2.52772
2.83054
3.11782
3.39235
3.66867
3.98854
4.45727
5.35105
0.179762
0.539053
0.897552
1.25439
1.60816
1.95666
2.29656
2.62315
2.9302
3.21028
3.45648
3.66674
3.85282
4.05079
4.28153
0.18628
0.558764
0.930909
1.30209
1.67102
2.03535
2.39115
2.73208
3.04849
3.32617
3.54544
3.68148
3.70869
3.62141
3.55868
0.192843
0.578689
0.964898
1.3513
1.737
2.11991
2.49598
2.85797
3.19359
3.48251
3.69209
3.77168
3.64392
3.17484
1.97475
0.199287
0.598338
0.998715
1.40093
1.80485
2.20914
2.6105
3.0021
3.37104
3.69383
3.92889
4.00575
3.81602
3.23576
2.30002
0.205392
0.61704
1.03121
1.44934
1.87236
2.30035
2.73173
3.16189
3.58046
3.96597
4.27542
4.42481
4.25915
3.54337
2.20745
0.210887
0.633961
1.06092
1.49427
1.93635
2.38912
2.85373
3.32966
3.81276
4.29081
4.73293
5.06251
5.08408
4.28144
1.29053
0.215467
0.648155
1.08614
1.53309
1.99285
2.46958
2.96779
3.49238
4.04848
4.64048
5.26843
5.91389
6.48113
6.53898
4.13304
0.218821
0.658638
1.10509
1.56293
2.03748
2.53504
3.06345
3.63317
4.25924
4.96512
5.7916
6.81928
8.23149
10.5077
15.0892
14.6725
10.0282
7.79497
6.44114
5.46738
4.68782
4.02268
3.43254
2.8951
2.39628
1.92631
1.47785
1.04504
0.622888
0.20695
3.35007
5.94614
6.0069
5.5236
4.94105
4.36296
3.81247
3.29233
2.79988
2.3311
1.88183
1.44807
1.02611
0.612405
0.203596
0.350127
3.62454
4.59644
4.67479
4.41143
4.01877
3.58107
3.13282
2.68815
2.2523
1.82649
1.41006
1.0014
0.598496
0.199106
1.03526
2.90177
3.80631
4.06308
3.9714
3.70571
3.35688
2.97076
2.57022
2.16645
1.76459
1.36657
0.972647
0.582117
0.193787
1.86198
2.84688
3.4658
3.69319
3.65202
3.45025
3.15849
2.81862
2.45447
2.07921
1.69993
1.32019
0.941493
0.564184
0.187933
2.37382
3.04595
3.397
3.50962
3.444
3.25715
2.99341
2.68328
2.34634
1.99469
1.63554
1.27302
0.909331
0.545488
0.1818
3.4988
3.4678
3.49359
3.44968
3.32
3.11731
2.86046
2.56647
2.24836
1.9153
1.57342
1.22661
0.877235
0.526661
0.175596
4.07969
3.85
3.63841
3.44915
3.24657
3.01496
2.75321
2.46632
2.16068
1.84198
1.51466
1.18191
0.845936
0.50815
0.169472
5.06124
4.21943
3.76756
3.45772
3.19317
2.93342
2.6633
2.37913
2.082
1.77457
1.45959
1.13942
0.815856
0.490235
0.163525
5.19885
4.31787
3.7979
3.43472
3.13629
2.85897
2.58306
2.30084
2.01041
1.71234
1.40808
1.09923
0.78717
0.473056
0.157806
4.71084
4.16541
3.71922
3.36662
3.06461
2.78345
2.5071
2.2282
1.94405
1.65433
1.35972
1.06122
0.759881
0.456647
0.152332
4.42754
3.94386
3.57541
3.26325
2.97835
2.70448
2.43285
2.15912
1.88151
1.59968
1.31399
1.02514
0.733881
0.440969
0.147095
3.91261
3.64216
3.39237
3.14085
2.88432
2.62385
2.35998
2.09266
1.82184
1.54764
1.27042
0.990688
0.709002
0.425942
0.14207
3.42882
3.32598
3.21043
3.02183
2.79292
2.5455
2.28942
2.02858
1.76445
1.49765
1.22856
0.957558
0.685052
0.411464
0.137227
2.18786
3.01855