/*--------------------------------*- C++ -*----------------------------------*\
| =========                 |                                                 |
| \\      /  F ield         | OpenFOAM: The Open Source CFD Toolbox           |
|  \\    /   O peration     | Version:  5.x                                   |
|   \\  /    A nd           | Web:      www.OpenFOAM.org                      |
|    \\/     M anipulation  |                                                 |
\*---------------------------------------------------------------------------*/
FoamFile
{
    version     2.0;
    format      ascii;
    class       volScalarField;
    location    "1.6";
    object      gradTx;
}
// * * * * * * * * * * * * * * * * * * * * * * * * * * * * * * * * * * * * * //

dimensions      [0 -1 0 1 0 0 0];

internalField   nonuniform List<scalar> 
6300
(
-51.9004
-51.8583
-51.7739
-51.6471
-51.4774
-51.2644
-51.0079
-50.7078
-50.3643
-49.9779
-49.5498
-49.0817
-48.5756
-48.0343
-47.4602
-51.9419
-51.8999
-51.8159
-51.6894
-51.52
-51.3074
-51.051
-50.7507
-50.4065
-50.0191
-49.5893
-49.1191
-48.6105
-48.0665
-47.49
-52.0247
-51.9831
-51.8996
-51.7739
-51.6054
-51.3935
-51.1374
-50.8369
-50.4916
-50.102
-49.6689
-49.1942
-48.6804
-48.1309
-47.5491
-52.1485
-52.1074
-52.025
-51.9006
-51.7336
-51.523
-51.2678
-50.9672
-50.6205
-50.2277
-49.7896
-49.3079
-48.7856
-48.2268
-47.6364
-52.3128
-52.2725
-52.1917
-52.0695
-51.9048
-51.6965
-51.4431
-51.1429
-50.7949
-50.3983
-49.9533
-49.4617
-48.9269
-48.3541
-47.75
-52.5167
-52.4777
-52.3991
-52.28
-52.1192
-51.9146
-51.6644
-51.366
-51.0174
-50.6166
-50.1632
-49.6583
-49.1056
-48.5121
-47.8873
-52.759
-52.7217
-52.6463
-52.5318
-52.3765
-52.1779
-51.9331
-51.6388
-51.2913
-50.8871
-50.4241
-49.9021
-49.3248
-48.7009
-48.0444
-53.0381
-53.003
-52.932
-52.8238
-52.6764
-52.4867
-52.2509
-51.9642
-51.6212
-51.216
-50.7434
-50.2006
-49.5901
-48.922
-48.2163
-53.3517
-53.3194
-53.2542
-53.1545
-53.0179
-52.8409
-52.6189
-52.3455
-52.0128
-51.6116
-51.1322
-50.5665
-49.9125
-49.1802
-48.3974
-53.6968
-53.6682
-53.6102
-53.5214
-53.3991
-53.2397
-53.0376
-52.7853
-52.4723
-52.085
-51.6069
-51.0203
-50.3128
-49.4884
-48.5828
-54.0699
-54.0456
-53.9964
-53.9209
-53.8168
-53.6803
-53.5059
-53.2852
-53.0055
-52.6488
-52.1893
-51.5944
-50.8296
-49.8773
-48.7735
-54.4664
-54.4472
-54.4082
-54.3485
-54.2661
-54.1583
-54.0199
-53.8433
-53.6153
-53.3147
-52.9068
-52.3378
-51.5333
-50.4171
-48.9878
-54.8815
-54.8678
-54.84
-54.7979
-54.7404
-54.6659
-54.5717
-54.4521
-54.2972
-54.0873
-53.7846
-53.3161
-52.5479
-51.2693
-49.2941
-55.3096
-55.3015
-55.2855
-55.2618
-55.2308
-55.1928
-55.148
-55.0958
-55.0334
-54.9521
-54.8275
-54.5933
-54.0721
-52.8174
-49.9367
-55.745
-55.7425
-55.7379
-55.7324
-55.7275
-55.7257
-55.7311
-55.749
-55.7878
-55.8594
-55.9792
-56.1564
-56.3289
-55.991
-52.1034
-46.9085
-46.3852
-45.8429
-45.2821
-44.7027
-44.1044
-43.4866
-42.849
-42.1915
-41.5143
-40.8183
-40.1052
-39.3771
-38.6365
-37.8866
-37.1305
-36.3718
-35.6139
-34.8604
-34.1146
-33.3801
-32.6602
-31.9581
-31.2767
-30.6188
-29.9868
-29.3827
-28.8084
-28.2651
-27.7539
-27.2756
-26.8306
-26.4192
-26.0414
-25.6969
-25.3855
-25.1068
-24.8606
-24.6463
-24.4637
-24.3122
-24.1916
-24.1014
-24.0415
-24.0118
-24.0122
-24.0429
-24.1044
-24.1972
-24.3218
-24.4787
-24.6685
-24.8915
-25.1478
-25.4374
-25.7601
-26.1152
-26.5021
-26.9198
-27.3669
-27.8423
-28.3443
-28.8715
-29.4221
-29.9947
-30.5875
-31.1988
-31.827
-32.4703
-33.1269
-33.795
-34.4729
-35.1588
-35.8513
-36.5486
-37.2493
-37.9518
-38.6546
-39.3562
-40.0551
-40.7499
-41.4393
-42.1221
-42.7969
-43.4623
-44.1169
-44.7589
-45.3862
-45.9966
-46.5876
-46.9364
-46.412
-45.8693
-45.3086
-44.7297
-44.1321
-43.515
-42.8776
-42.2196
-41.5412
-40.8431
-40.1269
-39.395
-38.6501
-37.8954
-37.1345
-36.3708
-35.6079
-34.8494
-34.0987
-33.3594
-32.6349
-31.9285
-31.2433
-30.5819
-29.947
-29.3405
-28.7641
-28.2193
-27.7071
-27.2282
-26.783
-26.3716
-25.9939
-25.6499
-25.339
-25.0609
-24.8152
-24.6015
-24.4195
-24.2686
-24.1484
-24.0586
-23.9989
-23.9691
-23.9692
-23.9994
-24.0602
-24.1522
-24.2759
-24.4322
-24.6214
-24.8441
-25.1005
-25.3905
-25.7139
-26.0702
-26.4585
-26.8778
-27.3269
-27.8044
-28.3087
-28.8381
-29.3911
-29.966
-30.5611
-31.1749
-31.8056
-32.4514
-33.1105
-33.7811
-34.4614
-35.1497
-35.8443
-36.5438
-37.2467
-37.9513
-38.6562
-39.3599
-40.0608
-40.7575
-41.4487
-42.1332
-42.8099
-43.4775
-44.1346
-44.7795
-45.41
-46.0239
-46.6185
-46.9917
-46.465
-45.9213
-45.3609
-44.7834
-44.1877
-43.5723
-42.9358
-42.2772
-41.5962
-40.8937
-40.1712
-39.4315
-38.6777
-37.9135
-37.1426
-36.3688
-35.5958
-34.8272
-34.0666
-33.3177
-32.584
-31.8689
-31.1758
-30.5075
-29.8666
-29.2552
-28.6749
-28.1272
-27.6129
-27.1328
-26.6871
-26.2759
-25.8989
-25.5557
-25.2459
-24.969
-24.7245
-24.512
-24.3311
-24.1814
-24.0623
-23.9733
-23.914
-23.8841
-23.8835
-23.9126
-23.9719
-24.0621
-24.1841
-24.3388
-24.5269
-24.7491
-25.0055
-25.2963
-25.6211
-25.9796
-26.3708
-26.7936
-27.2467
-27.7285
-28.2373
-28.7713
-29.3289
-29.9085
-30.5084
-31.1271
-31.7628
-32.4137
-33.0779
-33.7535
-34.4386
-35.1314
-35.8305
-36.5343
-37.2414
-37.9504
-38.6596
-39.3675
-40.0723
-40.7727
-41.4673
-42.1553
-42.8357
-43.5075
-44.1695
-44.8202
-45.4573
-46.0785
-46.6806
-47.0724
-46.5419
-45.9969
-45.4376
-44.8631
-44.2714
-43.6597
-43.0255
-42.3667
-41.6824
-40.9729
-40.2405
-39.4883
-38.7204
-37.9412
-37.155
-36.3659
-35.5776
-34.7938
-34.0181
-33.2544
-32.5064
-31.7781
-31.073
-30.3942
-29.7443
-29.1256
-28.5395
-27.9874
-27.4702
-26.9884
-26.5423
-26.1316
-25.7558
-25.4142
-25.1062
-24.831
-24.5883
-24.3777
-24.1987
-24.0508
-23.9335
-23.846
-23.7875
-23.7576
-23.7561
-23.7832
-23.8398
-23.9269
-24.0459
-24.198
-24.3842
-24.6053
-24.8618
-25.1536
-25.4807
-25.8425
-26.2381
-26.6664
-27.1258
-27.6143
-28.1301
-28.6711
-29.2356
-29.8221
-30.4291
-31.0551
-31.6984
-32.3571
-33.0292
-33.7124
-34.4047
-35.1043
-35.8099
-36.52
-37.2336
-37.9491
-38.6649
-39.3792
-40.09
-40.7958
-41.4954
-42.188
-42.8734
-43.5511
-44.2203
-44.8797
-45.5271
-46.1596
-46.7738
-47.1758
-46.6395
-46.0928
-45.5359
-44.9673
-44.3834
-43.7794
-43.1506
-42.493
-41.8044
-41.0853
-40.3382
-39.5678
-38.7795
-37.9791
-37.1718
-36.3619
-35.5531
-34.7489
-33.9527
-33.1686
-32.401
-31.6542
-30.9326
-30.2395
-29.5777
-28.9493
-28.3556
-27.7979
-27.277
-26.7933
-26.3471
-25.9376
-25.564
-25.2251
-24.9197
-24.6471
-24.4068
-24.1985
-24.0221
-23.8771
-23.7626
-23.6776
-23.6207
-23.591
-23.588
-23.6121
-23.6644
-23.7467
-23.8608
-24.0088
-24.192
-24.4115
-24.6678
-24.961
-25.2909
-25.6573
-26.0591
-26.4952
-26.9634
-27.4615
-27.987
-28.5375
-29.1113
-29.7067
-30.3228
-30.9585
-31.6121
-32.2817
-32.9647
-33.6584
-34.3604
-35.0689
-35.7827
-36.5009
-37.2229
-37.9473
-38.6724
-39.3957
-40.1148
-40.8276
-41.533
-42.2309
-42.9218
-43.6064
-44.2848
-44.9561
-45.6179
-46.2667
-46.8981
-47.2971
-46.7519
-46.2029
-45.6509
-45.0933
-44.5239
-43.9347
-43.317
-42.6635
-41.9704
-41.2378
-40.4696
-39.6729
-38.8561
-38.0271
-37.1925
-36.3565
-35.5224
-34.6925
-33.8701
-33.0594
-32.2657
-31.4947
-30.7515
-30.0402
-29.3637
-28.7234
-28.1205
-27.5559
-27.0306
-26.5451
-26.0994
-25.6926
-25.323
-24.9883
-24.6869
-24.4175
-24.1798
-23.9742
-23.801
-23.6601
-23.5502
-23.4695
-23.4156
-23.3868
-23.3818
-23.4012
-23.4468
-23.5213
-23.6279
-23.7695
-23.9483
-24.1654
-24.4213
-24.716
-25.0495
-25.4216
-25.8316
-26.2781
-26.7586
-27.2699
-27.8084
-28.3711
-28.956
-29.562
-30.1889
-30.8363
-31.5032
-32.1873
-32.885
-33.5927
-34.307
-35.0261
-35.7491
-36.4765
-37.2086
-37.9446
-38.6823
-39.4182
-40.1484
-40.8699
-41.5813
-42.2834
-42.9788
-43.6701
-44.3592
-45.0456
-45.7268
-46.3981
-47.0538
-47.429
-46.8695
-46.317
-45.7738
-45.2358
-44.6929
-44.131
-43.5346
-42.8911
-42.1933
-41.4413
-40.642
-39.8071
-38.9502
-38.0834
-37.215
-36.3488
-35.4856
-34.6257
-33.771
-32.9261
-32.0982
-31.2953
-30.5247
-29.7914
-29.0977
-28.4442
-27.8308
-27.258
-26.7274
-26.2401
-25.7964
-25.3948
-25.0321
-24.7044
-24.4085
-24.1428
-23.9074
-23.704
-23.5344
-23.399
-23.2965
-23.2234
-23.1754
-23.1488
-23.1413
-23.1535
-23.1882
-23.2504
-23.3452
-23.4775
-23.6501
-23.8642
-24.1196
-24.416
-24.7532
-25.1319
-25.5522
-26.0127
-26.5101
-27.0396
-27.5955
-28.1734
-28.7708
-29.3877
-30.0257
-30.6866
-31.3701
-32.0734
-32.7912
-33.5175
-34.2471
-34.9775
-35.7094
-36.4454
-37.1886
-37.9393
-38.6947
-39.4488
-40.1945
-40.9264
-41.6425
-42.3455
-43.0413
-43.7368
-44.4368
-45.1421
-45.8492
-46.5516
-47.2408
-47.5603
-46.9765
-46.4176
-45.8889
-45.3851
-44.8893
-44.3766
-43.8199
-43.1967
-42.4943
-41.713
-40.8655
-39.973
-39.0587
-38.1422
-37.2345
-36.3368
-35.4443
-34.5516
-33.6579
-32.7687
-31.895
-31.0499
-30.2447
-29.4859
-28.7745
-28.1077
-27.4829
-26.9001
-26.3622
-25.8728
-25.4334
-25.0417
-24.6914
-24.3754
-24.0875
-23.825
-23.5896
-23.3859
-23.219
-23.0914
-23.0011
-22.9418
-22.9052
-22.8838
-22.8733
-22.874
-22.891
-22.933
-23.0094
-23.128
-23.2929
-23.5042
-23.7598
-24.0576
-24.3979
-24.7831
-25.2154
-25.6947
-26.2162
-26.7716
-27.3514
-27.948
-28.558
-29.1834
-29.8302
-30.5045
-31.2086
-31.9388
-32.6856
-33.4378
-34.1862
-34.9271
-35.6637
-36.4043
-37.1576
-37.9273
-38.7089
-39.4912
-40.2603
-41.0052
-41.7224
-42.4175
-43.1038
-43.7965
-44.5063
-45.2354
-45.978
-46.7237
-47.4597
-47.6738
-47.0472
-46.4744
-45.9681
-45.5226
-45.1098
-44.6854
-44.2011
-43.6163
-42.9087
-42.0798
-41.154
-40.1702
-39.1705
-38.1886
-37.2396
-36.3175
-35.4034
-34.4793
-33.5384
-32.5892
-31.6509
-30.7473
-29.8982
-29.1128
-28.3873
-27.7111
-27.075
-26.4781
-25.9277
-25.4339
-25.0025
-24.6292
-24.3022
-24.0066
-23.7305
-23.4691
-23.2268
-23.0154
-22.8477
-22.731
-22.6618
-22.6282
-22.6139
-22.6041
-22.5898
-22.5715
-22.5587
-22.5669
-22.6136
-22.7125
-22.8695
-23.0812
-23.3397
-23.6387
-23.9787
-24.3669
-24.8117
-25.3164
-25.8739
-26.469
-27.0838
-27.7038
-28.3234
-28.9488
-29.5953
-30.2797
-31.0102
-31.7805
-32.5725
-33.3638
-34.1362
-34.8829
-35.6123
-36.3449
-37.103
-37.8979
-38.7221
-39.5525
-40.3608
-41.1239
-41.8337
-42.5019
-43.1569
-43.8313
-44.5476
-45.3087
-46.102
-46.909
-47.7109
-47.7442
-47.0402
-46.4352
-45.9592
-45.6129
-45.3469
-45.0805
-44.7267
-44.2128
-43.4978
-42.5861
-41.526
-40.3903
-39.2569
-38.1874
-37.2062
-36.2869
-35.3773
-34.4312
-33.4314
-32.3942
-31.3574
-30.3667
-29.4603
-28.6536
-27.9298
-27.2572
-26.6113
-25.9897
-25.4121
-24.906
-24.4884
-24.1509
-23.8682
-23.6102
-23.3529
-23.0862
-22.8203
-22.5825
-22.4038
-22.3027
-22.2721
-22.2875
-22.3169
-22.3314
-22.3131
-22.262
-22.1966
-22.1463
-22.1434
-22.2141
-22.3679
-22.5917
-22.8619
-23.1613
-23.4909
-23.8697
-24.3225
-24.8627
-25.4781
-26.1387
-26.8092
-27.4606
-28.081
-28.6842
-29.3064
-29.9889
-30.7547
-31.5911
-32.4606
-33.3172
-34.1234
-34.8637
-35.5563
-36.2488
-36.9953
-37.8265
-38.726
-39.6455
-40.526
-41.3191
-42.0045
-42.605
-43.1814
-43.8054
-44.5241
-45.335
-46.2059
-47.1012
-47.9955
-47.7343
-46.8901
-46.2099
-45.7628
-45.587
-45.5843
-45.6013
-45.4826
-45.0991
-44.37
-43.306
-42.0069
-40.6073
-39.2512
-38.0592
-37.084
-36.2425
-35.4041
-34.4607
-33.3786
-32.1989
-30.9977
-29.865
-28.8793
-28.0756
-27.3988
-26.7654
-26.1133
-25.4384
-24.7939
-24.2514
-23.8596
-23.5943
-23.3992
-23.2137
-22.9897
-22.7031
-22.3741
-22.0653
-21.8492
-21.7734
-21.8172
-21.9273
-22.0422
-22.1071
-22.0843
-21.9739
-21.8137
-21.6582
-21.5681
-21.5967
-21.7666
-22.0359
-22.3428
-22.6414
-22.9329
-23.2665
-23.7082
-24.3014
-25.0177
-25.7948
-26.5626
-27.2626
-27.8639
-28.3928
-28.9314
-29.5785
-30.3979
-31.3547
-32.3675
-33.3436
-34.2058
-34.9134
-35.5006
-36.0751
-36.7659
-37.6564
-38.7013
-39.7946
-40.817
-41.669
-42.2972
-42.7424
-43.1372
-43.6424
-44.3674
-45.2744
-46.2742
-47.2943
-48.3119
-47.5855
-46.5032
-45.6486
-45.1752
-45.3113
-45.7925
-46.3172
-46.6194
-46.4827
-45.7242
-44.3644
-42.6326
-40.7616
-39.0092
-37.6188
-36.7694
-36.1937
-35.5822
-34.6905
-33.4665
-32.0349
-30.5399
-29.1523
-28.0364
-27.3154
-26.8061
-26.3009
-25.6485
-24.8441
-24.0296
-23.3805
-23.0491
-22.9376
-22.9171
-22.8736
-22.7173
-22.3818
-21.8999
-21.4155
-21.0934
-21.073
-21.2679
-21.5611
-21.8405
-22.0099
-21.9825
-21.7586
-21.4251
-21.0767
-20.8229
-20.7769
-21.0228
-21.4269
-21.8368
-22.1323
-22.3152
-22.5084
-22.8766
-23.5638
-24.4705
-25.4651
-26.4143
-27.2074
-27.7518
-28.0879
-28.4008
-28.9204
-29.8437
-31.0382
-32.3276
-33.5342
-34.5111
-35.1366
-35.4633
-35.7341
-36.2489
-37.2642
-38.6065
-40.0456
-41.3531
-42.3408
-42.8533
-42.9518
-42.9338
-43.1624
-43.9479
-45.0796
-46.3127
-47.4901
-48.6404
-47.1683
-45.788
-44.5386
-43.7099
-44.5391
-45.9381
-47.3537
-48.388
-48.7615
-47.9445
-45.9585
-43.4588
-40.745
-38.2462
-36.3994
-36.0608
-36.197
-36.1638
-35.399
-33.8537
-31.9624
-29.9278
-28.0486
-26.6253
-26.2509
-26.2078
-26.0491
-25.4034
-24.2646
-23.0278
-22.0528
-21.9226
-22.1503
-22.4689
-22.6966
-22.7037
-22.272
-21.4298
-20.5325
-19.9041
-20.063
-20.5778
-21.2158
-21.7981
-22.1968
-22.1647
-21.7018
-21.0586
-20.3599
-19.7791
-19.5375
-20.0519
-20.8104
-21.496
-21.7862
-21.6833
-21.499
-21.5861
-22.5106
-23.7974
-25.2015
-26.4913
-27.5109
-27.9401
-27.8169
-27.5728
-27.6814
-28.8992
-30.5853
-32.4072
-34.0557
-35.3229
-35.7902
-35.5065
-35.0417
-35.0112
-36.401
-38.3722
-40.4861
-42.3496
-43.6966
-44.0053
-43.3286
-42.3747
-41.8802
-43.0292
-44.7384
-46.4306
-47.7241
-48.857
-45.9639
-44.8842
-42.8224
-39.8563
-42.9458
-46.0592
-48.9389
-51.1079
-52.7547
-51.8477
-48.2925
-44.5934
-40.4187
-36.5443
-33.0085
-34.6685
-36.4446
-37.7992
-37.232
-34.7393
-32.0967
-29.0925
-26.2889
-23.7043
-24.7099
-25.7764
-26.499
-25.8688
-23.8269
-21.6497
-19.5091
-20.2814
-21.2329
-22.1523
-22.8381
-23.323
-22.7541
-21.04
-19.2632
-17.5819
-18.5415
-19.711
-20.9517
-22.0211
-23.0051
-22.9681
-21.9058
-20.773
-19.4744
-18.2477
-17.2102
-18.7306
-20.2994
-21.7257
-22.007
-21.1696
-20.0994
-19.0906
-20.9364
-22.9564
-25.103
-26.9583
-28.6651
-28.9244
-27.7207
-26.2377
-24.8456
-27.2809
-29.9372
-32.737
-35.1267
-37.2867
-37.5255
-35.8107
-33.7242
-31.7282
-34.7007
-37.9324
-41.2867
-44.0899
-46.547
-46.576
-44.104
-41.1537
-38.2309
-41.3034
-44.4208
-47.1218
-48.1884
-48.2894
-41.0282
-45.3936
-42.408
-27.2826
-41.3178
-46.5165
-51.5473
-54.5798
-60.4251
-59.5642
-50.8335
-46.4126
-39.6602
-34.3551
-22.1356
-33.1093
-37.2994
-42.2021
-41.8378
-35.8414
-32.752
-27.9685
-24.2141
-15.614
-23.0818
-25.8406
-28.8975
-28.3677
-23.5848
-20.2192
-12.7714
-18.3829
-20.3624
-22.173
-23.2696
-25.4609
-24.8858
-20.7416
-17.8572
-11.4576
-16.7186
-18.7428
-20.9352
-22.3682
-25.2846
-25.2489
-22.2123
-20.7272
-18.4861
-16.4445
-11.2006
-17.3402
-19.9947
-23.605
-23.8396
-20.9918
-18.612
-12.4852
-19.1122
-21.9337
-25.4249
-27.6398
-31.9046
-32.0163
-28.0273
-24.7721
-16.4989
-25.3447
-29.0831
-33.6576
-36.5286
-42.0176
-42.0742
-36.6501
-32.2765
-21.2907
-32.6272
-37.3159
-42.8807
-46.3281
-52.8935
-52.7479
-45.5678
-39.8927
-25.948
-39.5122
-44.7023
-50.1661
-50.0428
-43.3349
-47.2109
-47.858
-48.4655
-49.0298
-49.5482
-50.0188
-50.4406
-50.813
-51.1363
-51.4111
-51.6381
-51.8184
-51.9527
-52.0418
-52.0862
-47.2458
-47.897
-48.5079
-49.0749
-49.5953
-50.067
-50.4891
-50.8613
-51.184
-51.458
-51.6841
-51.8635
-51.997
-52.0856
-52.1297
-47.3161
-47.9756
-48.5936
-49.1661
-49.6902
-50.164
-50.5867
-50.9583
-51.2797
-51.5519
-51.7761
-51.9536
-52.0856
-52.1731
-52.2166
-47.4223
-48.0949
-48.724
-49.305
-49.8346
-50.3112
-50.7344
-51.1049
-51.4238
-51.6929
-51.9139
-52.0884
-52.2179
-52.3036
-52.3462
-47.5656
-48.2571
-48.902
-49.4945
-50.0313
-50.5111
-50.9342
-51.3021
-51.617
-51.8812
-52.0973
-52.2673
-52.3932
-52.4763
-52.5176
-47.7476
-48.4654
-49.1315
-49.739
-50.2843
-50.767
-51.1884
-51.5516
-51.8599
-52.1169
-52.3258
-52.4895
-52.6103
-52.6899
-52.7295
-47.9713
-48.7249
-49.4189
-50.0449
-50.5994
-51.0833
-51.5002
-51.8551
-52.1532
-52.3997
-52.5987
-52.7538
-52.8679
-52.9428
-52.9799
-48.2409
-49.0433
-49.7737
-50.4215
-50.9844
-51.466
-51.8733
-52.2145
-52.4975
-52.729
-52.9146
-53.0583
-53.1636
-53.2325
-53.2667
-48.5635
-49.433
-50.2104
-50.8825
-51.4501
-51.9223
-52.3118
-52.6315
-52.8926
-53.1036
-53.2713
-53.4004
-53.4946
-53.5562
-53.5867
-48.9502
-49.9142
-50.7516
-51.4472
-52.0101
-52.4604
-52.8195
-53.1068
-53.3369
-53.5207
-53.6656
-53.7766
-53.8574
-53.9101
-53.9361
-49.4179
-50.5211
-51.4338
-52.1437
-52.6817
-53.0883
-53.3984
-53.6385
-53.8271
-53.976
-54.0928
-54.1822
-54.2472
-54.2896
-54.3106
-49.9916
-51.3174
-52.3177
-53.0115
-53.4837
-53.8111
-54.046
-54.2211
-54.3563
-54.4628
-54.5466
-54.6112
-54.6586
-54.6897
-54.7051
-50.7125
-52.4389
-53.5071
-54.1009
-54.4302
-54.6252
-54.7518
-54.8428
-54.9137
-54.9714
-55.0188
-55.0567
-55.0852
-55.1044
-55.114
-51.718
-54.2179
-55.1691
-55.4537
-55.511
-55.5061
-55.4921
-55.4837
-55.4835
-55.4897
-55.4996
-55.5104
-55.5203
-55.5276
-55.5315
-53.9992
-57.5446
-57.4966
-57.0329
-56.6535
-56.3947
-56.225
-56.1155
-56.0463
-56.0037
-55.9785
-55.9643
-55.9568
-55.9531
-55.9517
-56.1456
-56.1477
-56.1528
-56.1624
-56.1791
-56.2072
-56.2534
-56.328
-56.4487
-56.6463
-56.9815
-57.5927
-58.8648
-62.1537
-73.361
-56.5076
-56.5135
-56.5263
-56.5478
-56.5813
-56.632
-56.708
-56.8221
-56.9955
-57.2652
-57.7003
-58.4388
-59.7696
-62.2563
-66.3606
-56.8649
-56.874
-56.8931
-56.9243
-56.971
-57.0388
-57.1357
-57.2745
-57.4748
-57.7685
-58.2074
-58.8732
-59.8715
-61.235
-62.5486
-57.2153
-57.2269
-57.2509
-57.2894
-57.3457
-57.4248
-57.5339
-57.6836
-57.8886
-58.1701
-58.5562
-59.0763
-59.7192
-60.2475
-59.3267
-57.5571
-57.5704
-57.598
-57.6416
-57.704
-57.7895
-57.9037
-58.0537
-58.2486
-58.4981
-58.8114
-59.1935
-59.6459
-60.2658
-61.9981
-57.8888
-57.9034
-57.9333
-57.9801
-58.0459
-58.1339
-58.248
-58.3922
-58.5697
-58.7808
-59.0186
-59.2613
-59.4554
-59.5111
-59.3568
-58.2097
-58.2251
-58.2564
-58.3047
-58.3718
-58.4598
-58.571
-58.7069
-58.8666
-59.0439
-59.2223
-59.3621
-59.3602
-58.9018
-56.617
-58.5193
-58.535
-58.5668
-58.6157
-58.6827
-58.7693
-58.8765
-59.0044
-59.15
-59.3052
-59.4526
-59.5606
-59.5812
-59.5605
-60.623
-58.8172
-58.833
-58.8648
-58.9134
-58.9795
-59.064
-59.1673
-59.2889
-59.4258
-59.5707
-59.7102
-59.8193
-59.8298
-59.4664
-57.0525
-59.1033
-59.119
-59.1505
-59.1984
-59.2631
-59.3452
-59.4451
-59.5622
-59.6947
-59.8385
-59.9889
-60.1459
-60.3369
-60.796
-63.1993
-59.3778
-59.3932
-59.4242
-59.471
-59.534
-59.6137
-59.7105
-59.8244
-59.9546
-60.1004
-60.2628
-60.4484
-60.6567
-60.775
-59.6404
-59.6409
-59.6559
-59.6861
-59.7316
-59.7928
-59.87
-59.9638
-60.0745
-60.2026
-60.3493
-60.5205
-60.7345
-61.0378
-61.6235
-63.6604
-59.8927
-59.9073
-59.9366
-59.9806
-60.0398
-60.1144
-60.205
-60.312
-60.4363
-60.5798
-60.7485
-60.9579
-61.2216
-61.4638
-60.7479
-60.1336
-60.1477
-60.176
-60.2185
-60.2756
-60.3474
-60.4343
-60.5369
-60.6555
-60.7911
-60.9483
-61.1429
-61.4192
-61.9689
-63.81
-60.3638
-60.3774
-60.4047
-60.4457
-60.5005
-60.5694
-60.6525
-60.7501
-60.8615
-60.9859
-61.1221
-61.2705
-61.4259
-61.5767
-61.6993
-60.5838
-60.5969
-60.6231
-60.6625
-60.7151
-60.781
-60.8604
-60.9529
-61.0574
-61.1708
-61.2872
-61.3928
-61.4343
-61.2035
-59.6842
-60.7938
-60.8064
-60.8316
-60.8694
-60.9198
-60.9829
-61.0588
-61.1469
-61.2458
-61.3522
-61.4598
-61.5588
-61.6308
-61.7245
-62.6426
-60.9942
-61.0063
-61.0304
-61.0667
-61.1151
-61.1756
-61.2482
-61.3327
-61.4278
-61.5309
-61.6383
-61.7429
-61.8109
-61.6726
-60.2311
-61.1853
-61.1969
-61.2201
-61.255
-61.3014
-61.3594
-61.4291
-61.5104
-61.6027
-61.7052
-61.8187
-61.9519
-62.133
-62.5252
-64.2036
-61.3674
-61.3786
-61.4009
-61.4344
-61.4789
-61.5347
-61.6016
-61.6799
-61.7693
-61.8701
-61.9854
-62.1269
-62.3073
-62.4842
-61.9784
-61.5409
-61.5517
-61.5731
-61.6053
-61.6482
-61.7017
-61.7659
-61.841
-61.9266
-62.0231
-62.134
-62.2741
-62.4827
-62.9166
-64.3588
-61.706
-61.7164
-61.7371
-61.7681
-61.8093
-61.8608
-61.9224
-61.9941
-62.0751
-62.1644
-62.2622
-62.373
-62.5003
-62.6484
-62.8061
-61.863
-61.873
-61.893
-61.923
-61.9628
-62.0123
-62.0716
-62.14
-62.2163
-62.298
-62.3813
-62.4599
-62.5022
-62.3729
-61.3743
-62.0121
-62.0218
-62.0412
-62.0702
-62.1088
-62.1567
-62.2139
-62.2798
-62.3525
-62.4288
-62.5036
-62.5713
-62.622
-62.7006
-63.3796
-62.1536
-62.163
-62.1819
-62.2101
-62.2476
-62.2942
-62.3499
-62.414
-62.4848
-62.5588
-62.6309
-62.6938
-62.7209
-62.611
-61.7485
-62.2875
-62.2967
-62.3151
-62.3427
-62.3793
-62.425
-62.4797
-62.543
-62.6135
-62.6884
-62.7647
-62.8403
-62.9137
-63.0435
-63.8154
-62.4141
-62.4231
-62.4412
-62.4682
-62.5041
-62.5491
-62.6032
-62.6663
-62.7375
-62.8154
-62.8988
-62.9877
-63.066
-63.0296
-62.1444
-62.5335
-62.5424
-62.5601
-62.5866
-62.622
-62.6664
-62.7201
-62.7831
-62.8554
-62.9368
-63.0291
-63.1417
-63.2965
-63.6045
-64.7733
-62.6458
-62.6545
-62.6719
-62.698
-62.7329
-62.7768
-62.83
-62.8929
-62.9657
-63.0487
-63.1453
-63.2656
-63.4194
-63.5812
-63.3226
-62.7511
-62.7597
-62.7768
-62.8025
-62.837
-62.8803
-62.9329
-62.9952
-63.0672
-63.1495
-63.2451
-63.3654
-63.5352
-63.8494
-64.7843
-62.8495
-62.8579
-62.8748
-62.9002
-62.9341
-62.9769
-63.0287
-63.0899
-63.1602
-63.2392
-63.3277
-63.4303
-63.5493
-63.686
-63.827
-62.941
-62.9493
-62.966
-62.9911
-63.0245
-63.0667
-63.1176
-63.1775
-63.2457
-63.3206
-63.4004
-63.4831
-63.5498
-63.5192
-62.9793
-63.0258
-63.034
-63.0505
-63.0752
-63.1083
-63.1498
-63.2
-63.2587
-63.325
-63.3967
-63.471
-63.5462
-63.6163
-63.7055
-64.1369
-63.1038
-63.112
-63.1283
-63.1527
-63.1854
-63.2265
-63.276
-63.3339
-63.399
-63.469
-63.541
-63.6123
-63.6682
-63.6536
-63.238
-63.1752
-63.1833
-63.1995
-63.2237
-63.2561
-63.2968
-63.3459
-63.4033
-63.4681
-63.5382
-63.6115
-63.6884
-63.7675
-63.8798
-64.3324
-63.2401
-63.2481
-63.2641
-63.2882
-63.3204
-63.3608
-63.4097
-63.467
-63.532
-63.6033
-63.6796
-63.7622
-63.8424
-63.869
-63.4832
-63.2983
-63.3063
-63.3222
-63.3461
-63.3782
-63.4184
-63.4672
-63.5246
-63.5901
-63.6629
-63.7433
-63.8369
-63.9531
-64.1442
-64.7479
-63.35
-63.358
-63.3738
-63.3976
-63.4295
-63.4697
-63.5183
-63.5757
-63.6416
-63.7154
-63.7979
-63.8951
-64.0105
-64.1322
-64.0742
-63.3953
-63.4032
-63.419
-63.4427
-63.4745
-63.5145
-63.563
-63.6203
-63.6861
-63.7598
-63.8424
-63.94
-64.0619
-64.2445
-64.6787
-63.434
-63.4419
-63.4576
-63.4813
-63.513
-63.5529
-63.6013
-63.6583
-63.7236
-63.7963
-63.8763
-63.9675
-64.0697
-64.1816
-64.2906
-63.4662
-63.4741
-63.4899
-63.5135
-63.5451
-63.5849
-63.6331
-63.6898
-63.7544
-63.8257
-63.9026
-63.9864
-64.0694
-64.1202
-63.9905
-63.492
-63.4999
-63.5156
-63.5393
-63.5709
-63.6106
-63.6587
-63.7151
-63.7791
-63.8492
-63.9242
-64.0053
-64.0898
-64.1836
-64.3842
-63.5113
-63.5192
-63.535
-63.5586
-63.5903
-63.63
-63.6781
-63.7343
-63.798
-63.8675
-63.9414
-64.0211
-64.1024
-64.1724
-64.1578
-63.5241
-63.532
-63.5479
-63.5716
-63.6034
-63.6432
-63.6913
-63.7476
-63.8113
-63.8807
-63.9547
-64.0352
-64.1214
-64.2195
-64.3863
-63.5304
-63.5384
-63.5543
-63.5782
-63.6101
-63.6502
-63.6985
-63.7551
-63.8191
-63.889
-63.9634
-64.0445
-64.1306
-64.2185
-64.2901
-63.5302
-63.5382
-63.5542
-63.5783
-63.6104
-63.6508
-63.6996
-63.7567
-63.8214
-63.892
-63.9675
-64.0497
-64.137
-64.2282
-64.3252
-63.5233
-63.5314
-63.5476
-63.5719
-63.6044
-63.6452
-63.6945
-63.7524
-63.818
-63.8899
-63.9668
-64.0507
-64.1392
-64.2334
-64.3707
-63.5099
-63.518
-63.5344
-63.559
-63.5918
-63.6331
-63.6831
-63.7419
-63.8087
-63.8822
-63.9614
-64.0478
-64.1361
-64.2081
-64.1881
-63.4897
-63.4979
-63.5145
-63.5394
-63.5727
-63.6145
-63.6653
-63.725
-63.7932
-63.8687
-63.951
-64.0429
-64.1427
-64.2462
-64.34
-63.4627
-63.4711
-63.4879
-63.5131
-63.5468
-63.5893
-63.6408
-63.7015
-63.771
-63.8485
-63.934
-64.0319
-64.1452
-64.2904
-64.5694
-63.4289
-63.4374
-63.4544
-63.48
-63.5142
-63.5573
-63.6096
-63.6712
-63.7418
-63.8208
-63.9084
-64.0093
-64.1242
-64.2413
-64.2387
-63.3881
-63.3968
-63.414
-63.44
-63.4747
-63.5184
-63.5714
-63.6338
-63.7053
-63.7851
-63.8736
-63.9764
-64.1001
-64.2748
-64.6849
-63.3403
-63.3491
-63.3666
-63.393
-63.4282
-63.4726
-63.5263
-63.5895
-63.6615
-63.7414
-63.8289
-63.9281
-64.0392
-64.1443
-64.0459
-63.2855
-63.2943
-63.3122
-63.3389
-63.3747
-63.4198
-63.4743
-63.5382
-63.6107
-63.6904
-63.776
-63.8709
-63.981
-64.1546
-64.7335
-63.2233
-63.2324
-63.2505
-63.2777
-63.3141
-63.3599
-63.4153
-63.4801
-63.5535
-63.6332
-63.7168
-63.8026
-63.8771
-63.8829
-63.4636
-63.1539
-63.1631
-63.1815
-63.2092
-63.2462
-63.2929
-63.3493
-63.4154
-63.4903
-63.5715
-63.656
-63.7413
-63.8193
-63.9059
-64.2871
-63.0771
-63.0864
-63.1051
-63.1333
-63.171
-63.2185
-63.2762
-63.344
-63.4211
-63.5055
-63.5945
-63.6845
-63.7542
-63.7237
-63.2141
-62.9927
-63.0022
-63.0212
-63.0498
-63.0882
-63.1367
-63.1956
-63.2652
-63.3453
-63.4345
-63.5324
-63.641
-63.7571
-63.8737
-63.9737
-62.9007
-62.9103
-62.9296
-62.9587
-62.9977
-63.047
-63.1072
-63.1786
-63.2614
-63.3556
-63.4628
-63.5916
-63.7582
-64.0346
-64.8153
-62.801
-62.8107
-62.8303
-62.8597
-62.8993
-62.9494
-63.0105
-63.0833
-63.1681
-63.2655
-63.3782
-63.5151
-63.6815
-63.8447
-63.6204
-62.6934
-62.7033
-62.7231
-62.7528
-62.7929
-62.8435
-62.9053
-62.9789
-63.0646
-63.1629
-63.2769
-63.4175
-63.6054
-63.9235
-64.8737
-62.578
-62.588
-62.6079
-62.638
-62.6783
-62.7294
-62.7916
-62.8654
-62.9507
-63.0474
-63.157
-63.2864
-63.4374
-63.5628
-63.1507
-62.4546
-62.4647
-62.4848
-62.515
-62.5557
-62.607
-62.6694
-62.743
-62.8273
-62.921
-63.0234
-63.1396
-63.2855
-63.5749
-64.803
-62.3232
-62.3333
-62.3536
-62.384
-62.4249
-62.4765
-62.539
-62.6125
-62.6959
-62.7865
-62.8803
-62.9715
-63.0323
-62.9347
-61.8702
-62.1838
-62.1939
-62.2143
-62.2449
-62.286
-62.3378
-62.4006
-62.4744
-62.5579
-62.6478
-62.7389
-62.8239
-62.8875
-62.9654
-63.6613
-62.0363
-62.0465
-62.0669
-62.0976
-62.1389
-62.191
-62.2543
-62.3289
-62.4138
-62.5063
-62.6017
-62.6904
-62.7313
-62.5665
-61.4312
-61.8806
-61.8908
-61.9113
-61.9421
-61.9835
-62.0358
-62.0997
-62.1754
-62.2628
-62.3609
-62.4692
-62.5893
-62.7165
-62.841
-62.9425
-61.7169
-61.7271
-61.7476
-61.7784
-61.8198
-61.8723
-61.9364
-62.013
-62.1027
-62.2065
-62.3285
-62.4825
-62.702
-63.1308
-64.537
-61.545
-61.5552
-61.5756
-61.6064
-61.6477
-61.7001
-61.7641
-61.8408
-61.9312
-62.0375
-62.1655
-62.3295
-62.5408
-62.7413
-62.2163
-61.365
-61.3752
-61.3956
-61.4262
-61.4673
-61.5192
-61.5826
-61.6582
-61.7472
-61.8516
-61.9775
-62.1428
-62.3855
-62.8549
-64.4482
-61.1769
-61.1871
-61.2074
-61.2379
-61.2787
-61.3299
-61.3921
-61.4657
-61.551
-61.6486
-61.7621
-61.9017
-62.0713
-62.1876
-61.3523
-60.9807
-60.9909
-61.0112
-61.0416
-61.082
-61.1326
-61.1934
-61.2643
-61.3445
-61.4327
-61.5285
-61.6391
-61.7925
-62.1806
-64.1358
-60.7765
-60.7867
-60.807
-60.8373
-60.8776
-60.9276
-60.9872
-61.0557
-61.131
-61.2094
-61.2846
-61.346
-61.3492
-61.0847
-59.2167
-60.5642
-60.5744
-60.5949
-60.6254
-60.6657
-60.7156
-60.7745
-60.8415
-60.9139
-60.9864
-61.0504
-61.0926
-61.0902
-61.1019
-62.0858
-60.3437
-60.3541
-60.3748
-60.4057
-60.4465
-60.4967
-60.5559
-60.6228
-60.695
-60.7674
-60.8313
-60.8696
-60.82
-60.4433
-58.5686
-60.1149
-60.1256
-60.1468
-60.1783
-60.2199
-60.2711
-60.3314
-60.3999
-60.4745
-60.5522
-60.63
-60.7068
-60.7753
-60.8245
-60.844
-59.8778
-59.8888
-59.9106
-59.9431
-59.986
-60.0388
-60.101
-60.1718
-60.2502
-60.3351
-60.4293
-60.549
-60.7424
-61.2259
-63.1454
-59.632
-59.6434
-59.6661
-59.6999
-59.7445
-59.7994
-59.8641
-59.9379
-60.0198
-60.1095
-60.2111
-60.3392
-60.5065
-60.6296
-59.6976
-59.3773
-59.3892
-59.413
-59.4483
-59.4951
-59.5527
-59.6206
-59.6977
-59.7824
-59.8736
-59.9744
-60.1016
-60.2999
-60.7655
-62.7093
-59.1134
-59.1259
-59.1508
-59.188
-59.2374
-59.2985
-59.3704
-59.4515
-59.539
-59.6291
-59.7195
-59.8138
-59.906
-59.8743
-58.5392
-58.8398
-58.8529
-58.8791
-58.9185
-58.971
-59.0362
-59.1133
-59.2001
-59.2923
-59.3824
-59.4619
-59.5268
-59.5968
-59.8876
-61.998
-58.5562
-58.5699
-58.5974
-58.6391
-58.695
-58.7652
-58.8492
-58.9444
-59.0454
-59.1413
-59.2144
-59.2356
-59.1326
-58.6369
-56.1733
-58.2621
-58.2763
-58.3051
-58.3488
-58.4084
-58.4843
-58.5768
-58.684
-58.8005
-58.9143
-59.0028
-59.03
-58.9396
-58.7522
-59.4107
-57.9572
-57.9717
-58.0013
-58.0469
-58.1098
-58.1916
-58.2937
-58.4164
-58.5561
-58.7028
-58.834
-58.9053
-58.8125
-58.2796
-56.205
-57.6412
-57.6558
-57.6856
-57.7321
-57.7973
-57.8842
-57.9962
-58.1362
-58.3055
-58.5001
-58.7067
-58.8939
-58.9896
-58.8772
-58.4821
-57.3142
-57.3284
-57.3575
-57.4035
-57.4693
-57.5591
-57.6787
-57.835
-58.0357
-58.2874
-58.593
-58.9455
-59.3099
-59.6706
-60.4963
-56.9765
-56.9896
-57.0168
-57.0603
-57.1238
-57.2129
-57.3354
-57.5024
-57.729
-58.0353
-58.4468
-58.988
-59.6313
-60.1405
-59.5405
-56.6289
-56.6402
-56.6639
-56.7025
-56.7601
-56.843
-56.9607
-57.1277
-57.3656
-57.7082
-58.2106
-58.959
-60.0444
-61.3803
-61.7339
-56.2725
-56.2812
-56.2999
-56.3308
-56.3781
-56.4484
-56.5516
-56.7032
-56.9281
-57.2685
-57.8037
-58.6954
-60.2822
-63.3018
-69.0371
-55.9092
-55.9146
-55.9265
-55.9469
-55.9797
-56.0305
-56.1084
-56.2272
-56.4089
-56.6916
-57.1495
-57.9484
-59.5235
-63.3371
-75.4805
-76.1178
-63.8873
-60.0092
-58.403
-57.5902
-57.1258
-56.8402
-56.6569
-56.5371
-56.4583
-56.4067
-56.3734
-56.3524
-56.3402
-56.3347
-70.0776
-63.8525
-60.7142
-59.0971
-58.1998
-57.6651
-57.327
-57.1044
-56.9544
-56.8524
-56.7828
-56.7359
-56.7052
-56.6867
-56.6781
-61.8035
-61.6733
-60.3613
-59.2912
-58.5574
-58.0663
-57.7324
-57.5008
-57.3381
-57.2234
-57.1426
-57.0865
-57.0488
-57.0256
-57.0147
-60.198
-60.3139
-59.839
-59.2513
-58.7464
-58.357
-58.0653
-57.8485
-57.6882
-57.5704
-57.4847
-57.4235
-57.3815
-57.3553
-57.3427
-58.5227
-59.3641
-59.3935
-59.1536
-58.8552
-58.5784
-58.3448
-58.1563
-58.0084
-57.8947
-57.8092
-57.7464
-57.7025
-57.6747
-57.6612
-58.9341
-58.9774
-59.1337
-59.0961
-58.9489
-58.7683
-58.5917
-58.4352
-58.3044
-58.1992
-58.1172
-58.0555
-58.0115
-57.9833
-57.9695
-56.6664
-58.5114
-59.0071
-59.1144
-59.0656
-58.9539
-58.823
-58.6955
-58.5822
-58.4871
-58.4105
-58.3516
-58.3088
-58.281
-58.2673
-59.6384
-58.9817
-59.1488
-59.2408
-59.2259
-59.1513
-59.0507
-58.9453
-58.847
-58.7616
-58.6911
-58.6357
-58.5948
-58.568
-58.5547
-56.5681
-58.8792
-59.3412
-59.441
-59.4274
-59.365