/*--------------------------------*- C++ -*----------------------------------*\
| =========                 |                                                 |
| \\      /  F ield         | OpenFOAM: The Open Source CFD Toolbox           |
|  \\    /   O peration     | Version:  5.x                                   |
|   \\  /    A nd           | Web:      www.OpenFOAM.org                      |
|    \\/     M anipulation  |                                                 |
\*---------------------------------------------------------------------------*/
FoamFile
{
    version     2.0;
    format      ascii;
    class       volScalarField;
    location    "1.6";
    object      T;
}
// * * * * * * * * * * * * * * * * * * * * * * * * * * * * * * * * * * * * * //

dimensions      [0 0 0 1 0 0 0];

internalField   nonuniform List<scalar> 
6300
(
322.74
322.222
321.703
321.186
320.67
320.157
319.645
319.136
318.631
318.129
317.631
317.138
316.65
316.167
315.689
322.74
322.221
321.702
321.185
320.668
320.154
319.642
319.133
318.627
318.125
317.627
317.133
316.645
316.161
315.683
322.74
322.22
321.7
321.182
320.665
320.15
319.637
319.127
318.62
318.117
317.618
317.124
316.634
316.15
315.672
322.739
322.218
321.697
321.177
320.659
320.143
319.629
319.117
318.609
318.105
317.605
317.109
316.619
316.133
315.654
322.738
322.215
321.693
321.172
320.652
320.133
319.618
319.105
318.595
318.089
317.587
317.09
316.598
316.111
315.63
322.737
322.212
321.688
321.164
320.642
320.122
319.604
319.089
318.577
318.068
317.564
317.065
316.571
316.083
315.601
322.736
322.209
321.682
321.156
320.631
320.108
319.588
319.07
318.555
318.044
317.537
317.035
316.539
316.049
315.565
322.735
322.204
321.675
321.146
320.618
320.092
319.568
319.047
318.529
318.015
317.505
317
316.501
316.008
315.522
322.733
322.2
321.667
321.135
320.604
320.074
319.547
319.022
318.5
317.982
317.468
316.959
316.456
315.961
315.473
322.731
322.195
321.658
321.122
320.588
320.054
319.523
318.994
318.467
317.944
317.425
316.912
316.405
315.906
315.415
322.73
322.189
321.649
321.109
320.57
320.033
319.497
318.963
318.431
317.902
317.378
316.859
316.346
315.842
315.349
322.728
322.183
321.639
321.095
320.552
320.01
319.469
318.929
318.392
317.857
317.325
316.799
316.279
315.768
315.27
322.726
322.177
321.628
321.08
320.532
319.985
319.439
318.894
318.35
317.808
317.268
316.732
316.202
315.681
315.176
322.723
322.17
321.617
321.065
320.512
319.96
319.408
318.857
318.306
317.756
317.207
316.66
316.115
315.578
315.059
322.721
322.164
321.606
321.049
320.492
319.935
319.377
318.82
318.262
317.704
317.145
316.585
316.022
315.458
314.902
315.257
314.868
314.484
314.104
313.729
313.359
312.994
312.634
312.28
311.931
311.588
311.251
310.919
310.594
310.275
309.963
309.657
309.357
309.063
308.776
308.494
308.219
307.95
307.687
307.429
307.176
306.929
306.687
306.449
306.216
305.986
305.761
305.539
305.321
305.105
304.892
304.682
304.474
304.268
304.063
303.86
303.658
303.457
303.256
303.056
302.856
302.656
302.455
302.254
302.052
301.849
301.644
301.438
301.229
301.018
300.805
300.589
300.37
300.147
299.921
299.691
299.457
299.219
298.976
298.729
298.476
298.219
297.956
297.688
297.415
297.136
296.852
296.562
296.266
295.964
295.657
295.343
295.024
294.699
294.368
294.031
293.689
293.341
292.987
292.628
292.263
291.892
291.517
291.136
290.75
315.251
314.862
314.477
314.097
313.722
313.352
312.986
312.626
312.272
311.923
311.579
311.242
310.911
310.585
310.266
309.954
309.648
309.348
309.054
308.767
308.486
308.211
307.942
307.679
307.421
307.169
306.922
306.68
306.443
306.21
305.981
305.756
305.534
305.316
305.101
304.889
304.679
304.471
304.265
304.061
303.858
303.657
303.456
303.256
303.056
302.856
302.656
302.456
302.255
302.054
301.851
301.646
301.44
301.232
301.022
300.809
300.594
300.375
300.153
299.927
299.697
299.463
299.225
298.983
298.735
298.483
298.226
297.964
297.696
297.423
297.144
296.86
296.57
296.274
295.972
295.665
295.352
295.032
294.707
294.376
294.04
293.697
293.349
292.995
292.635
292.27
291.9
291.524
291.143
290.757
315.238
314.849
314.464
314.084
313.708
313.337
312.972
312.611
312.256
311.906
311.563
311.225
310.893
310.568
310.248
309.936
309.629
309.33
309.036
308.749
308.468
308.194
307.925
307.663
307.406
307.154
306.908
306.667
306.43
306.198
305.97
305.746
305.525
305.308
305.093
304.882
304.673
304.466
304.261
304.057
303.855
303.654
303.454
303.255
303.055
302.856
302.657
302.458
302.258
302.057
301.855
301.651
301.446
301.239
301.029
300.817
300.602
300.384
300.163
299.938
299.709
299.475
299.238
298.996
298.749
298.497
298.241
297.979
297.711
297.438
297.16
296.876
296.586
296.29
295.989
295.681
295.368
295.049
294.724
294.393
294.056
293.713
293.365
293.011
292.651
292.286
291.915
291.539
291.157
290.771
315.22
314.83
314.444
314.063
313.687
313.316
312.949
312.588
312.232
311.882
311.537
311.199
310.867
310.541
310.221
309.909
309.602
309.302
309.009
308.723
308.442
308.168
307.9
307.639
307.383
307.132
306.887
306.647
306.411
306.18
305.953
305.73
305.511
305.295
305.082
304.871
304.663
304.457
304.253
304.051
303.85
303.65
303.451
303.253
303.055
302.857
302.659
302.461
302.262
302.062
301.861
301.658
301.454
301.248
301.04
300.829
300.615
300.398
300.178
299.954
299.726
299.494
299.257
299.016
298.77
298.519
298.263
298.001
297.734
297.462
297.184
296.9
296.611
296.315
296.014
295.706
295.393
295.074
294.749
294.418
294.081
293.738
293.389
293.035
292.674
292.309
291.937
291.561
291.179
290.791
315.196
314.805
314.418
314.036
313.659
313.287
312.92
312.557
312.2
311.849
311.504
311.164
310.831
310.505
310.185
309.872
309.566
309.266
308.973
308.687
308.407
308.134
307.867
307.606
307.352
307.102
306.859
306.62
306.386
306.157
305.931
305.71
305.492
305.278
305.066
304.857
304.651
304.447
304.244
304.043
303.844
303.645
303.448
303.251
303.054
302.857
302.661
302.464
302.266
302.068
301.869
301.668
301.466
301.261
301.054
300.845
300.633
300.418
300.199
299.976
299.749
299.518
299.283
299.043
298.798
298.547
298.292
298.032
297.765
297.493
297.216
296.933
296.643
296.348
296.047
295.74
295.426
295.107
294.782
294.451
294.113
293.77
293.421
293.066
292.706
292.34
291.968
291.59
291.207
290.819
315.165
314.773
314.386
314.003
313.625
313.251
312.883
312.519
312.161
311.808
311.461
311.121
310.787
310.46
310.139
309.826
309.519
309.22
308.927
308.642
308.363
308.091
307.825
307.566
307.312
307.065
306.823
306.586
306.354
306.127
305.904
305.685
305.469
305.256
305.047
304.84
304.635
304.433
304.232
304.033
303.836
303.639
303.443
303.248
303.053
302.858
302.663
302.468
302.272
302.076
301.879
301.68
301.48
301.277
301.073
300.865
300.655
300.442
300.224
300.004
299.779
299.549
299.315
299.076
298.832
298.584
298.329
298.07
297.804
297.533
297.256
296.973
296.684
296.389
296.089
295.782
295.468
295.149
294.824
294.492
294.155
293.811
293.462
293.106
292.745
292.378
292.006
291.628
291.244
290.854
315.128
314.735
314.346
313.963
313.584
313.209
312.839
312.473
312.113
311.758
311.41
311.068
310.733
310.404
310.083
309.77
309.463
309.164
308.872
308.587
308.309
308.038
307.774
307.516
307.265
307.02
306.78
306.546
306.316
306.091
305.871
305.654
305.441
305.231
305.024
304.819
304.617
304.417
304.218
304.022
303.826
303.632
303.438
303.245
303.052
302.859
302.666
302.473
302.279
302.085
301.89
301.694
301.496
301.296
301.094
300.889
300.682
300.471
300.256
300.037
299.814
299.586
299.354
299.117
298.875
298.627
298.374
298.116
297.851
297.581
297.305
297.022
296.734
296.439
296.139
295.832
295.519
295.2
294.874
294.542
294.204
293.86
293.51
293.154
292.793
292.425
292.052
291.673
291.288
290.897
315.084
314.69
314.301
313.916
313.536
313.16
312.788
312.42
312.058
311.7
311.349
311.005
310.668
310.339
310.017
309.703
309.397
309.098
308.806
308.522
308.245
307.976
307.713
307.458
307.209
306.967
306.73
306.498
306.272
306.05
305.832
305.619
305.408
305.201
304.997
304.795
304.595
304.398
304.202
304.008
303.815
303.623
303.432
303.241
303.05
302.86
302.669
302.478
302.287
302.096
301.904
301.711
301.516
301.319
301.12
300.918
300.713
300.505
300.293
300.077
299.856
299.63
299.4
299.165
298.924
298.678
298.427
298.17
297.907
297.637
297.362
297.08
296.792
296.498
296.198
295.891
295.579
295.259
294.933
294.601
294.262
293.918
293.567
293.211
292.849
292.481
292.107
291.727
291.341
290.948
315.033
314.638
314.249
313.864
313.483
313.105
312.731
312.36
311.994
311.633
311.279
310.932
310.593
310.262
309.94
309.626
309.32
309.021
308.729
308.446
308.17
307.903
307.643
307.39
307.145
306.905
306.672
306.443
306.22
306.002
305.788
305.578
305.371
305.168
304.966
304.768
304.571
304.376
304.184
303.993
303.803
303.614
303.425
303.237
303.048
302.86
302.672
302.484
302.296
302.108
301.919
301.729
301.538
301.345
301.149
300.951
300.749
300.544
300.336
300.123
299.904
299.681
299.453
299.22
298.981
298.737
298.488
298.233
297.971
297.703
297.428
297.147
296.859
296.565
296.266
295.96
295.647
295.328
295.002
294.669
294.329
293.983
293.632
293.275
292.913
292.545
292.17
291.789
291.402
291.008
314.974
314.579
314.19
313.806
313.424
313.045
312.668
312.294
311.923
311.557
311.198
310.847
310.506
310.174
309.852
309.538
309.232
308.933
308.642
308.359
308.085
307.819
307.562
307.313
307.071
306.836
306.606
306.381
306.162
305.948
305.739
305.533
305.33
305.13
304.933
304.737
304.543
304.352
304.163
303.976
303.79
303.604
303.418
303.233
303.047
302.86
302.675
302.489
302.305
302.12
301.936
301.75
301.563
301.374
301.182
300.988
300.79
300.59
300.385
300.175
299.96
299.74
299.513
299.282
299.045
298.804
298.557
298.304
298.044
297.778
297.503
297.222
296.935
296.641
296.342
296.037
295.726
295.407
295.08
294.746
294.405
294.057
293.705
293.347
292.985
292.617
292.243
291.861
291.473
291.076
314.907
314.513
314.125
313.743
313.363
312.983
312.603
312.223
311.845
311.471
311.105
310.749
310.405
310.073
309.751
309.438
309.133
308.834
308.543
308.26
307.987
307.723
307.47
307.226
306.989
306.758
306.532
306.312
306.097
305.888
305.684
305.483
305.286
305.09
304.896
304.703
304.513
304.325
304.14
303.957
303.776
303.594
303.412
303.229
303.045
302.86
302.677
302.494
302.313
302.133
301.954
301.773
301.591
301.406
301.218
301.029
300.836
300.641
300.441
300.236
300.024
299.806
299.581
299.351
299.117
298.878
298.635
298.385
298.128
297.863
297.589
297.307
297.019
296.725
296.427
296.124
295.814
295.496
295.169
294.833
294.489
294.138
293.784
293.426
293.065
292.699
292.325
291.944
291.554
291.156
314.828
314.437
314.053
313.676
313.3
312.921
312.537
312.149
311.76
311.374
310.998
310.635
310.288
309.956
309.638
309.329
309.025
308.725
308.432
308.147
307.874
307.613
307.365
307.127
306.898
306.672
306.451
306.234
306.023
305.82
305.623
305.43
305.239
305.048
304.857
304.667
304.478
304.294
304.113
303.937
303.762
303.585
303.407
303.226
303.043
302.859
302.677
302.497
302.32
302.145
301.973
301.799
301.622
301.442
301.258
301.073
300.886
300.698
300.505
300.305
300.097
299.881
299.657
299.427
299.194
298.959
298.721
298.477
298.224
297.96
297.685
297.401
297.11
296.815
296.519
296.22
295.915
295.599
295.271
294.931
294.582
294.226
293.868
293.51
293.152
292.79
292.42
292.039
291.648
291.248
314.735
314.35
313.972
313.608
313.244
312.866
312.478
312.076
311.672
311.264
310.873
310.498
310.148
309.819
309.511
309.212
308.91
308.609
308.307
308.019
307.743
307.486
307.244
307.018
306.8
306.581
306.363
306.147
305.94
305.742
305.556
305.375
305.191
305.006
304.816
304.627
304.438
304.256
304.081
303.914
303.749
303.58
303.406
303.226
303.043
302.856
302.673
302.494
302.323
302.155
301.993
301.829
301.659
301.483
301.3
301.119
300.939
300.761
300.579
300.386
300.183
299.966
299.741
299.507
299.275
299.044
298.816
298.582
298.334
298.073
297.794
297.505
297.205
296.909
296.614
296.325
296.03
295.718
295.391
295.043
294.685
294.315
293.951
293.593
293.245
292.895
292.528
292.149
291.754
291.354
314.62
314.253
313.872
313.539
313.207
312.824
312.44
312.008
311.588
311.129
310.724
310.324
309.98
309.65
309.371
309.1
308.794
308.493
308.164
307.872
307.585
307.337
307.1
306.899
306.705
306.487
306.275
306.046
305.844
305.648
305.483
305.323
305.145
304.969
304.776
304.589
304.387
304.21
304.036
303.889
303.743
303.579
303.415
303.23
303.048
302.847
302.665
302.482
302.319
302.157
302.015
301.87
301.703
301.532
301.341
301.165
300.988
300.83
300.67
300.481
300.287
300.063
299.838
299.585
299.356
299.123
298.918
298.709
298.464
298.21
297.918
297.625
297.296
296.999
296.7
296.437
296.171
295.859
295.539
295.171
294.804
294.395
294.028
293.66
293.342
293.023
292.653
292.282
291.868
291.479
314.456
314.178
313.7
313.471
313.245
312.782
312.47
311.923
311.56
310.916
310.567
310.069
309.794
309.408
309.221
309.039
308.67
308.417
307.966
307.72
307.369
307.174
306.903
306.771
306.642
306.386
306.212
305.904
305.739
305.511
305.402
305.298
305.096
304.959
304.726
304.571
304.302
304.156
303.956
303.859
303.765
303.58
303.453
303.231
303.08
302.81
302.659
302.44
302.314
302.132
302.04
301.945
301.751
301.612
301.357
301.214
301.007
300.904
300.799
300.586
300.434
300.162
299.973
299.63
299.439
299.163
299.026
298.888
298.604
298.403
298.043
297.794
297.343
297.093
296.732
296.555
296.377
296.011
295.755
295.297
294.983
294.415
294.104
293.656
293.439
293.223
292.78
292.478
291.944
291.644
290.32
289.845
289.363
288.876
288.383
287.885
287.382
286.876
286.366
285.853
285.338
284.82
284.301
283.781
283.26
290.327
289.851
289.369
288.881
288.387
287.889
287.386
286.879
286.369
285.856
285.34
284.822
284.302
283.782
283.261
290.34
289.863
289.38
288.892
288.397
287.898
287.394
286.886
286.375
285.86
285.344
284.825
284.305
283.783
283.261
290.36
289.882
289.398
288.908
288.412
287.911
287.406
286.896
286.383
285.868
285.35
284.829
284.308
283.785
283.262
290.386
289.907
289.421
288.929
288.431
287.929
287.421
286.91
286.395
285.878
285.358
284.836
284.312
283.788
283.263
290.42
289.939
289.451
288.956
288.456
287.951
287.441
286.927
286.41
285.89
285.367
284.843
284.317
283.791
283.264
290.461
289.977
289.487
288.989
288.486
287.977
287.464
286.947
286.427
285.904
285.379
284.852
284.324
283.795
283.265
290.51
290.023
289.529
289.028
288.52
288.008
287.491
286.97
286.447
285.921
285.392
284.862
284.331
283.799
283.266
290.567
290.076
289.578
289.072
288.56
288.043
287.522
286.997
286.469
285.939
285.407
284.874
284.339
283.804
283.268
290.632
290.138
289.634
289.123
288.605
288.083
287.556
287.026
286.494
285.959
285.423
284.886
284.348
283.809
283.27
290.708
290.208
289.698
289.18
288.655
288.126
287.593
287.058
286.521
285.981
285.441
284.9
284.357
283.815
283.272
290.796
290.289
289.77
289.242
288.709
288.173
287.633
287.092
286.549
286.005
285.46
284.914
284.367
283.821
283.274
290.898
290.381
289.85
289.311
288.768
288.222
287.675
287.127
286.578
286.029
285.479
284.928
284.378
283.827
283.276
291.021
290.486
289.937
289.383
288.828
288.273
287.718
287.163
286.608
286.053
285.498
284.943
284.388
283.833
283.278
291.18
290.606
290.029
289.456
288.888
288.323
287.76
287.199
286.638
286.078
285.518
284.958
284.399
283.839
283.28
322.719
322.158
321.596
321.035
320.473
319.911
319.349
318.786
318.222
317.657
317.089
316.518
315.938
315.34
314.695
322.717
322.152
321.587
321.022
320.456
319.89
319.324
318.756
318.187
317.616
317.042
316.462
315.873
315.267
314.628
322.716
322.147
321.578
321.009
320.44
319.87
319.299
318.727
318.153
317.578
316.998
316.413
315.821
315.216
314.596
322.714
322.142
321.569
320.997
320.424
319.85
319.275
318.699
318.121
317.541
316.958
316.37
315.777
315.176
314.572
322.712
322.137
321.561
320.985
320.408
319.831
319.252
318.673
318.091
317.508
316.921
316.331
315.737
315.138
314.532
322.711
322.132
321.553
320.973
320.393
319.812
319.23
318.647
318.062
317.476
316.887
316.295
315.702
315.106
314.511
322.709
322.127
321.544
320.962
320.378
319.794
319.209
318.623
318.035
317.446
316.854
316.261
315.667
315.074
314.489
322.707
322.122
321.537
320.951
320.364
319.777
319.189
318.6
318.009
317.417
316.823
316.228
315.632
315.036
314.44
322.706
322.118
321.529
320.94
320.351
319.761
319.17
318.577
317.984
317.389
316.793
316.195
315.596
314.998
314.407
322.705
322.113
321.522
320.93
320.338
319.745
319.151
318.556
317.96
317.362
316.763
316.163
315.56
314.956
314.344
322.703
322.109
321.515
320.921
320.326
319.73
319.134
318.536
317.937
317.337
316.735
316.132
315.526
314.918
314.311
322.702
322.105
321.509
320.912
320.314
319.716
319.117
318.517
317.915
317.312
316.708
316.102
315.493
314.881
314.261
322.701
322.102
321.502
320.903
320.303
319.702
319.101
318.498
317.894
317.289
316.683
316.074
315.464
314.85
314.234
322.699
322.098
321.496
320.894
320.292
319.689
319.085
318.48
317.874
317.267
316.659
316.048
315.436
314.82
314.196
322.698
322.095
321.491
320.886
320.282
319.676
319.07
318.463
317.855
317.246
316.636
316.024
315.41
314.795
314.179
322.697
322.091
321.485
320.879
320.272
319.664
319.056
318.447
317.837
317.226
316.614
316
315.386
314.772
314.162
322.696
322.088
321.48
320.871
320.263
319.653
319.043
318.432
317.82
317.207
316.593
315.978
315.362
314.745
314.127
322.695
322.085
321.475
320.864
320.254
319.642
319.03
318.417
317.803
317.189
316.573
315.956
315.338
314.72
314.104
322.694
322.082
321.47
320.858
320.245
319.632
319.018
318.403
317.788
317.171
316.554
315.935
315.315
314.692
314.064
322.693
322.079
321.466
320.851
320.237
319.622
319.006
318.39
317.773
317.154
316.535
315.915
315.293
314.669
314.043
322.692
322.077
321.461
320.845
320.229
319.612
318.995
318.377
317.758
317.139
316.518
315.896
315.272
314.646
314.014
322.691
322.074
321.457
320.84
320.222
319.603
318.985
318.365
317.745
317.124
316.501
315.878
315.254
314.628
314.001
322.691
322.072
321.453
320.834
320.215
319.595
318.975
318.353
317.732
317.109
316.486
315.862
315.237
314.611
313.989
322.69
322.07
321.45
320.829
320.208
319.587
318.965
318.343
317.719
317.095
316.471
315.845
315.219
314.593
313.965
322.689
322.068
321.446
320.824
320.202
319.579
318.956
318.332
317.708
317.082
316.456
315.83
315.203
314.575
313.95
322.689
322.066
321.443
320.819
320.196
319.572
318.947
318.322
317.696
317.07
316.443
315.815
315.186
314.556
313.925
322.688
322.064
321.439
320.815
320.19
319.565
318.939
318.313
317.686
317.058
316.429
315.8
315.17
314.539
313.909
322.687
322.062
321.436
320.811
320.185
319.558
318.931
318.304
317.676
317.047
316.417
315.786
315.154
314.52
313.882
322.687
322.06
321.434
320.807
320.18
319.552
318.924
318.296
317.666
317.036
316.405
315.773
315.14
314.505
313.868
322.686
322.059
321.431
320.803
320.175
319.546
318.917
318.288
317.658
317.026
316.395
315.762
315.127
314.491
313.85
322.686
322.057
321.429
320.8
320.171
319.541
318.911
318.28
317.649
317.017
316.384
315.751
315.116
314.48
313.842
322.685
322.056
321.426
320.797
320.166
319.536
318.905
318.274
317.642
317.009
316.375
315.741
315.106
314.47
313.835
322.685
322.055
321.424
320.794
320.163
319.531
318.9
318.267
317.635
317.001
316.367
315.732
315.096
314.459
313.822
322.684
322.053
321.422
320.791
320.159
319.527
318.895
318.262
317.628
316.994
316.359
315.723
315.086
314.449
313.813
322.684
322.052
321.42
320.788
320.156
319.523
318.89
318.256
317.622
316.987
316.351
315.715
315.077
314.439
313.8
322.684
322.051
321.419
320.786
320.153
319.52
318.886
318.252
317.617
316.981
316.344
315.707
315.069
314.43
313.792
322.684
322.051
321.417
320.784
320.15
319.517
318.882
318.247
317.612
316.975
316.338
315.7
315.062
314.421
313.779
322.683
322.05
321.416
320.782
320.148
319.514
318.879
318.243
317.607
316.97
316.333
315.695
315.055
314.414
313.772
322.683
322.049
321.415
320.781
320.146
319.511
318.876
318.24
317.603
316.966
316.328
315.689
315.049
314.408
313.765
322.683
322.048
321.414
320.779
320.144
319.509
318.873
318.237
317.6
316.963
316.324
315.685
315.045
314.404
313.761
322.683
322.048
321.413
320.778
320.143
319.507
318.871
318.235
317.597
316.96
316.321
315.681
315.041
314.4
313.759
322.683
322.048
321.413
320.777
320.142
319.506
318.87
318.233
317.595
316.957
316.318
315.679
315.038
314.397
313.754
322.682
322.047
321.412
320.777
320.141
319.505
318.868
318.231
317.594
316.955
316.316
315.676
315.036
314.394
313.752
322.682
322.047
321.412
320.776
320.14
319.504
318.867
318.23
317.592
316.954
316.315
315.675
315.034
314.393
313.75
322.682
322.047
321.412
320.776
320.14
319.504
318.867
318.23
317.592
316.953
316.314
315.674
315.033
314.392
313.749
322.682
322.047
321.412
320.776
320.14
319.504
318.867
318.23
317.592
316.953
316.314
315.674
315.033
314.391
313.748
322.682
322.047
321.412
320.776
320.14
319.504
318.867
318.23
317.592
316.954
316.315
315.675
315.034
314.392
313.749
322.682
322.047
321.412
320.777
320.141
319.505
318.868
318.231
317.593
316.955
316.316
315.676
315.035
314.393
313.751
322.683
322.048
321.413
320.777
320.142
319.506
318.87
318.233
317.595
316.957
316.318
315.678
315.037
314.395
313.752
322.683
322.048
321.413
320.778
320.143
319.507
318.871
318.235
317.597
316.959
316.32
315.68
315.04
314.398
313.754
322.683
322.049
321.414
320.779
320.145
319.509
318.873
318.237
317.6
316.962
316.324
315.684
315.043
314.402
313.759
322.683
322.049
321.415
320.781
320.146
319.511
318.876
318.24
317.603
316.966
316.328
315.688
315.048
314.406
313.763
322.683
322.05
321.416
320.783
320.148
319.514
318.879
318.243
317.607
316.97
316.332
315.694
315.054
314.413
313.771
322.684
322.051
321.418
320.784
320.151
319.517
318.883
318.247
317.612
316.975
316.338
315.7
315.061
314.42
313.777
322.684
322.052
321.419
320.787
320.154
319.52
318.886
318.252
317.617
316.981
316.344
315.707
315.068
314.429
313.791
322.684
322.053
321.421
320.789
320.157
319.524
318.891
318.257
317.623
316.987
316.351
315.714
315.076
314.438
313.798
322.685
322.054
321.423
320.792
320.16
319.528
318.896
318.263
317.629
316.994
316.359
315.722
315.085
314.447
313.811
322.685
322.055
321.425
320.795
320.164
319.533
318.901
318.269
317.636
317.002
316.367
315.731
315.094
314.456
313.817
322.686
322.056
321.427
320.798
320.168
319.538
318.907
318.276
317.644
317.011
316.377
315.741
315.105
314.466
313.824
322.686
322.058
321.43
320.801
320.173
319.543
318.914
318.283
317.652
317.02
316.387
315.752
315.116
314.479
313.839
322.687
322.06
321.432
320.805
320.177
319.549
318.921
318.291
317.661
317.03
316.398
315.764
315.129
314.492
313.851
322.687
322.061
321.435
320.809
320.183
319.556
318.928
318.3
317.671
317.041
316.41
315.778
315.144
314.509
313.873
322.688
322.063
321.438
320.813
320.188
319.562
318.936
318.309
317.681
317.052
316.423
315.792
315.16
314.526
313.888
322.688
322.065
321.442
320.818
320.194
319.57
318.945
318.319
317.692
317.065
316.437
315.807
315.177
314.547
313.918
322.689
322.067
321.445
320.823
320.2
319.577
318.954
318.329
317.704
317.078
316.451
315.823
315.195
314.566
313.935
322.69
322.069
321.449
320.828
320.207
319.585
318.963
318.34
317.717
317.092
316.466
315.84
315.213
314.585
313.961
322.691
322.072
321.453
320.834
320.214
319.594
318.973
318.352
317.73
317.107
316.483
315.857
315.231
314.603
313.974
322.691
322.074
321.457
320.839
320.221
319.603
318.984
318.364
317.744
317.122
316.499
315.876
315.25
314.621
313.987
322.692
322.077
321.461
320.845
320.229
319.612
318.995
318.377
317.758
317.138
316.517
315.895
315.271
314.644
314.016
322.693
322.08
321.466
320.852
320.237
319.622
319.007
318.391
317.774
317.156
316.537
315.916
315.294
314.668
314.037
322.694
322.082
321.47
320.858
320.246
319.633
319.019
318.405
317.79
317.174
316.557
315.939
315.319
314.697
314.075
322.695
322.085
321.475
320.865
320.254
319.643
319.032
318.42
317.807
317.193
316.578
315.962
315.345
314.726
314.101
322.696
322.088
321.48
320.872
320.264
319.655
319.045
318.435
317.824
317.212
316.6
315.987
315.373
314.76
314.151
322.697
322.092
321.486
320.88
320.273
319.666
319.059
318.451
317.842
317.233
316.622
316.012
315.4
314.79
314.178
322.698
322.095
321.491
320.887
320.283
319.678
319.073
318.467
317.861
317.253
316.645
316.037
315.428
314.82
314.219
322.699
322.098
321.497
320.895
320.293
319.691
319.088
318.484
317.88
317.275
316.669
316.062
315.455
314.847
314.238
322.701
322.102
321.503
320.904
320.304
319.704
319.103
318.502
317.9
317.297
316.693
316.088
315.482
314.873
314.258
322.702
322.106
321.509
320.912
320.315
319.717
319.119
318.52
317.92
317.32
316.718
316.115
315.511
314.905
314.299
322.703
322.109
321.515
320.921
320.326
319.731
319.135
318.539
317.941
317.343
316.744
316.144
315.542
314.938
314.327
322.704
322.113
321.522
320.93
320.338
319.746
319.152
318.558
317.963
317.367
316.771
316.173
315.574
314.975
314.377
322.706
322.117
321.529
320.94
320.35
319.76
319.17
318.578
317.986
317.392
316.798
316.203
315.607
315.011
314.41
322.707
322.122
321.536
320.95
320.363
319.776
319.188
318.599
318.009
317.418
316.826
316.234
315.641
315.051
314.469
322.709
322.126
321.543
320.96
320.376
319.792
319.207
318.62
318.033
317.444
316.855
316.264
315.674
315.085
314.499
322.71
322.131
321.551
320.971
320.39
319.808
319.226
318.643
318.058
317.471
316.884
316.295
315.706
315.118
314.54
322.712
322.135
321.559
320.982
320.404
319.826
319.246
318.666
318.084
317.5
316.914
316.326
315.736
315.146
314.558
322.713
322.14
321.567
320.993
320.419
319.844
319.268
318.69
318.111
317.529
316.945
316.358
315.766
315.171
314.573
322.715
322.145
321.575
321.005
320.434
319.863
319.29
318.716
318.14
317.561
316.979
316.392
315.799
315.2
314.597
322.717
322.151
321.584
321.017
320.45
319.882
319.313
318.743
318.171
317.596
317.016
316.431
315.837
315.23
314.61
322.719
322.156
321.593
321.03
320.466
319.902
319.337
318.771
318.203
317.633
317.058
316.477
315.884
315.271
314.618
322.72
322.161
321.602
321.043
320.483
319.923
319.363
318.801
318.238
317.673
317.104
316.53
315.945
315.339
314.679
291.387
290.72
290.109
289.52
288.941
288.368
287.798
287.231
286.665
286.1
285.536
284.972
284.408
283.845
283.282
291.443
290.784
290.166
289.57
288.984
288.406
287.831
287.259
286.689
286.12
285.552
284.984
284.417
283.85
283.283
291.442
290.819
290.209
289.612
289.023
288.44
287.862
287.286
286.712
286.139
285.567
284.996
284.426
283.855
283.285
291.449
290.844
290.243
289.647
289.058
288.473
287.891
287.311
286.734
286.157
285.582
285.008
284.434
283.86
283.287
291.46
290.867
290.272
289.679
289.089
288.502
287.918
287.335
286.755
286.175
285.597
285.019
284.442
283.865
283.288
291.48
290.892
290.301
289.709
289.119
288.53
287.943
287.358
286.775
286.192
285.611
285.03
284.449
283.87
283.29
291.499
290.918
290.329
289.738
289.147
288.557
287.968
287.38
286.794
286.208
285.624
285.04
284.457
283.874
283.291
291.538
290.95
290.359
289.767
289.174
288.582
287.991
287.401
286.812
286.224
285.637
285.05
284.464
283.878
283.293
291.567
290.982
290.39
289.795
289.201
288.607
288.014
287.421
286.83
286.239
285.649
285.06
284.471
283.882
283.294
291.623
291.02
290.422
289.824
289.227
288.631
288.035
287.441
286.847
286.254
285.661
285.069
284.478
283.887
283.295
291.654
291.054
290.453
289.853
289.253
288.654
288.057
287.46
286.863
286.268
285.673
285.078
284.484
283.89
283.297
291.701
291.089
290.484
289.88
289.278
288.677
288.077
287.478
286.879
286.281
285.684
285.087
284.49
283.894
283.298
291.728
291.12
290.513
289.907
289.303
288.699
288.097
287.495
286.895
286.294
285.695
285.095
284.496
283.898
283.299
291.767
291.15
290.54
289.933
289.326
288.721
288.116
287.513
286.91
286.307
285.705
285.103
284.502
283.901
283.3
291.785
291.175
290.566
289.957
289.349
288.742
288.135
287.529
286.924
286.319
285.715
285.111
284.508
283.905
283.302
291.803
291.2
290.591
289.981
289.372
288.762
288.154
287.545
286.938
286.331
285.725
285.119
284.513
283.908
283.303
291.842
291.229
290.618
290.005
289.393
288.782
288.171
287.561
286.952
286.343
285.734
285.126
284.518
283.911
283.304
291.868
291.258
290.644
290.029
289.415
288.801
288.188
287.576
286.965
286.354
285.743
285.133
284.524
283.914
283.305
291.915
291.29
290.67
290.053
289.436
288.82
288.205
287.591
286.977
286.364
285.752
285.14
284.528
283.917
283.306
291.94
291.318
290.695
290.075
289.456
288.838
288.221
287.605
286.99
286.375
285.76
285.147
284.533
283.92
283.307
291.977
291.345
290.719
290.096
289.475
288.855
288.236
287.618
287.001
286.385
285.769
285.153
284.538
283.922
283.307
291.997
291.368
290.741
290.117
289.494
288.872
288.251
287.631
287.012
286.394
285.776
285.159
284.542
283.925
283.308
292.024
291.39
290.761
290.135
289.511
288.887
288.265
287.644
287.023
286.403
285.784
285.165
284.546
283.927
283.309
292.037
291.408
290.78
290.153
289.527
288.902
288.279
287.656
287.033
286.412
285.791
285.17
284.55
283.93
283.31
292.049
291.425
290.797
290.17
289.543
288.917
288.291
287.667
287.043
286.42
285.798
285.175
284.554
283.932
283.311
292.074
291.444
290.815
290.186
289.557
288.93
288.303
287.678
287.052
286.428
285.804
285.18
284.557
283.934
283.311
292.091
291.462
290.832
290.201
289.572
288.943
288.315
287.688
287.061
286.435
285.81
285.185
284.561
283.936
283.312
292.12
291.482
290.848
290.216
289.585
288.955
288.326
287.697
287.069
286.442
285.816
285.19
284.564
283.938
283.313
292.135
291.499
290.864
290.23
289.598
288.966
288.336
287.706
287.077
286.449
285.821
285.194
284.567
283.94
283.313
292.157
291.515
290.878
290.243
289.609
288.977
288.345
287.715
287.085
286.455
285.826
285.198
284.57
283.942
283.314
292.168
291.529
290.891
290.255
289.62
288.987
288.354
287.722
287.091
286.461
285.831
285.202
284.572
283.943
283.314
292.183
291.541
290.902
290.266
289.63
288.996
288.362
287.73
287.098
286.466
285.835
285.205
284.575
283.945
283.315
292.19
291.551
290.913
290.275
289.639
289.004
288.37
287.737
287.104
286.471
285.84
285.208
284.577
283.946
283.315
292.196
291.56
290.922
290.284
289.648
289.012
288.377
287.743
287.109
286.476
285.843
285.211
284.579
283.947
283.316
292.209
291.569
290.931
290.293
289.656
289.019
288.384
287.749
287.114
286.48
285.847
285.214
284.581
283.949
283.316
292.216
291.578
290.939
290.3
289.663
289.026
288.389
287.754
287.119
286.484
285.85
285.216
284.583
283.95
283.317
292.23
291.587
290.947
290.308
289.669
289.032
288.395