/*--------------------------------*- C++ -*----------------------------------*\
| =========                 |                                                 |
| \\      /  F ield         | OpenFOAM: The Open Source CFD Toolbox           |
|  \\    /   O peration     | Version:  5.x                                   |
|   \\  /    A nd           | Web:      www.OpenFOAM.org                      |
|    \\/     M anipulation  |                                                 |
\*---------------------------------------------------------------------------*/
FoamFile
{
    version     2.0;
    format      ascii;
    class       volScalarField;
    location    "0.9";
    object      gradTy;
}
// * * * * * * * * * * * * * * * * * * * * * * * * * * * * * * * * * * * * * //

dimensions      [0 -1 0 1 0 0 0];

internalField   nonuniform List<scalar> 
6300
(
32270.9
32212.8
32154.7
32096.8
32039.2
31981.8
31924.8
31868.2
31812.1
31756.5
31701.5
31647.3
31593.8
31541.1
31489.2
-0.0464032
-0.139404
-0.232984
-0.327459
-0.42302
-0.519707
-0.617353
-0.71555
-0.813619
-0.910618
-1.00539
-1.09668
-1.18324
-1.26413
-1.33882
-0.0771118
-0.23169
-0.3873
-0.544517
-0.703724
-0.865037
-1.02822
-1.19262
-1.35709
-1.52002
-1.67937
-1.83284
-1.97818
-2.11355
-2.23791
-0.107454
-0.322917
-0.539984
-0.759556
-0.982287
-1.20845
-1.43783
-1.66956
-1.90205
-2.13295
-2.35915
-2.57707
-2.78302
-2.97391
-3.14788
-0.137241
-0.412517
-0.690111
-0.971371
-1.25733
-1.54856
-1.84496
-2.1456
-2.44848
-2.75043
-3.04708
-3.3331
-3.60278
-3.85099
-4.07448
-0.166229
-0.499775
-0.83653
-1.17842
-1.52703
-1.8834
-2.24776
-2.61927
-2.9957
-3.37306
-3.74549
-4.10533
-4.44386
-4.75267
-5.02586
-0.194107
-0.583774
-0.977739
-1.37866
-1.78887
-2.2101
-2.64323
-3.08786
-3.5418
-4.00043
-4.45626
-4.89865
-5.31442
-5.68973
-6.01365
-0.220521
-0.663434
-1.11192
-1.56954
-2.03956
-2.52475
-3.02704
-3.54698
-4.08299
-4.6304
-5.18025
-5.71834
-6.22514
-6.67785
-7.05592
-0.245049
-0.737482
-1.2369
-1.7479
-2.27494
-2.82216
-3.39303
-3.98982
-4.61258
-5.25768
-5.91571
-6.56898
-7.18955
-7.74015
-8.18173
-0.267227
-0.804492
-1.35021
-1.91012
-2.49001
-3.09573
-3.73292
-4.40647
-5.11957
-5.87173
-6.65558
-7.45188
-8.2234
-8.91084
-9.43964
-0.286577
-0.862986
-1.44925
-2.05221
-2.67909
-3.33767
-4.03621
-4.78332
-5.58719
-6.45373
-7.38254
-8.35899
-9.34063
-10.2393
-10.9138
-0.302648
-0.911566
-1.53149
-2.17023
-2.83632
-3.53943
-4.29069
-5.10314
-5.99181
-6.97302
-8.06131
-9.26023
-10.54
-11.7912
-12.7581
-0.315074
-0.949074
-1.59481
-2.26075
-2.95637
-3.69283
-4.48376
-5.34644
-6.30348
-7.38474
-8.62879
-10.0799
-11.7671
-13.6267
-15.2764
-0.323626
-0.974779
-1.63783
-2.32143
-3.03541
-3.79156
-4.6048
-5.49507
-6.49051
-7.63311
-8.98854
-10.6626
-12.8213
-15.6714
-19.1048
-0.328256
-0.988513
-1.6602
-2.35159
-3.0721
-3.83299
-4.64857
-5.53818
-6.52993
-7.66806
-9.02901
-10.7599
-13.1833
-17.1321
-25.2119
31442.5
31400.7
31359.6
31319.2
31279.6
31240.6
31202.5
31165.2
31128.6
31093
31058.1
31024.1
30991
30958.8
30927.5
30897.1
30867.6
30838.9
30811.2
30784.3
30758.2
30733
30708.6
30685
30662.2
30640
30618.6
30597.9
30577.8
30558.3
30539.3
30520.9
30503
30485.5
30468.5
30451.8
30435.5
30419.4
30403.7
30388.2
30372.9
30357.7
30342.7
30327.8
30312.9
30298.1
30283.2
30268.3
30253.4
30238.3
30223
30207.6
30191.9
30176
30159.8
30143.2
30126.2
30108.9
30091
30072.7
30053.9
30034.5
30014.5
29993.9
29972.6
29950.6
29928
29904.6
29880.4
29855.4
29829.6
29803
29775.5
29747.2
29718
29687.9
29656.9
29625.1
29592.3
29558.6
29524
29488.5
29452.1
29414.8
29376.7
29337.7
29297.8
29257.2
29215.7
29173.5
-1.40168
-1.45502
-1.50514
-1.55278
-1.59861
-1.64308
-1.6863
-1.72799
-1.76746
-1.80371
-1.83561
-1.86201
-1.88195
-1.8947
-1.89985
-1.89722
-1.88684
-1.86886
-1.84351
-1.81105
-1.77179
-1.72612
-1.6745
-1.61749
-1.5557
-1.4898
-1.42044
-1.34828
-1.27391
-1.19791
-1.12078
-1.04298
-0.964886
-0.88681
-0.808966
-0.731493
-0.65446
-0.577896
-0.501805
-0.426176
-0.350985
-0.276181
-0.201671
-0.127313
-0.0529153
0.0217451
0.096895
0.172731
0.249389
0.326924
0.405302
0.484408
0.564058
0.644013
0.723996
0.803696
0.882781
0.960906
1.03773
1.11293
1.18622
1.25737
1.32616
1.3924
1.45586
1.51632
1.57348
1.62704
1.67672
1.72226
1.76347
1.80018
1.83227
1.85963
1.88209
1.89946
1.91157
1.91826
1.91947
1.91523
1.90566
1.89088
1.87097
1.84589
1.81544
1.77927
1.737
1.68823
1.63272
1.5704
-2.34194
-2.42981
-2.51219
-2.59052
-2.66616
-2.74009
-2.81259
-2.88316
-2.95051
-3.01275
-3.0677
-3.11326
-3.14763
-3.16958
-3.17843
-3.17401
-3.15648
-3.12617
-3.08351
-3.02891
-2.96288
-2.88603
-2.79913
-2.70313
-2.59911
-2.48822
-2.37161
-2.25039
-2.12556
-1.99809
-1.86883
-1.73855
-1.60793
-1.47747
-1.34753
-1.21831
-1.08989
-0.962292
-0.835505
-0.709513
-0.584293
-0.459783
-0.335844
-0.212235
-0.0886108
0.0354464
0.160368
0.286529
0.414189
0.543451
0.67425
0.806372
0.939484
1.07317
1.20695
1.3403
1.47265
1.60338
1.73192
1.85769
1.98022
2.09912
2.21408
2.32479
2.43095
2.53213
2.62786
2.71759
2.80078
2.87699
2.94589
3.00727
3.06096
3.10679
3.14451
3.17376
3.19416
3.20542
3.20738
3.20015
3.18399
3.15925
3.12615
3.08468
3.03447
2.97486
2.90501
2.82414
2.7317
2.62754
-3.29194
-3.41264
-3.52522
-3.63229
-3.73639
-3.83936
-3.9419
-4.04323
-4.14118
-4.23253
-4.31361
-4.38087
-4.43147
-4.46358
-4.4764
-4.46995
-4.44478
-4.40156
-4.34094
-4.2635
-4.16981
-4.06065
-3.9371
-3.80055
-3.65264
-3.4951
-3.32966
-3.15789
-2.98123
-2.80103
-2.61851
-2.43481
-2.2509
-2.06754
-1.88519
-1.70408
-1.52425
-1.34562
-1.16814
-0.99181
-0.816636
-0.642606
-0.469572
-0.297196
-0.124931
0.0479153
0.22208
0.398207
0.576737
0.757834
0.941376
1.12701
1.31419
1.50232
1.69067
1.87851
2.06498
2.24921
2.43026
2.6073
2.77964
2.94676
3.10831
3.26398
3.41341
3.55605
3.69114
3.8178
3.93516
4.04251
4.13942
4.22569
4.30123
4.36592
4.41939
4.46106
4.49021
4.50622
4.50881
4.49819
4.47496
4.43991
4.39366
4.33631
4.26729
4.18541
4.08914
3.97696
3.8478
3.70125
-4.25651
-4.40698
-4.54603
-4.67822
-4.80811
-4.93919
-5.0729
-5.20813
-5.34133
-5.46714
-5.57943
-5.6725
-5.74198
-5.78541
-5.80214
-5.79292
-5.75911
-5.70206
-5.62268
-5.52154
-5.39908
-5.25609
-5.09388
-4.91441
-4.72009
-4.51346
-4.29689
-4.0725
-3.8421
-3.60738
-3.36997
-3.13144
-2.89317
-2.65621
-2.42114
-2.1881
-1.95693
-1.72736
-1.49921
-1.2725
-1.04739
-0.824047
-0.602404
-0.38204
-0.162132
0.0584484
0.28093
0.506395
0.735562
0.96867
1.20548
1.44538
1.68755
1.93111
2.17514
2.41867
2.66057
2.89959
3.13438
3.3637
3.58658
3.80243
4.01101
4.21218
4.40567
4.59083
4.76655
4.9314
5.08394
5.22308
5.34828
5.45955
5.55715
5.64118
5.71126
5.76639
5.80517
5.82634
5.82928
5.81439
5.78296
5.73672
5.67716
5.60475
5.51863
5.41671
5.29617
5.15427
4.98897
4.79942
-5.24267
-5.41772
-5.57668
-5.72742
-5.87813
-6.03526
-6.20175
-6.37604
-6.55226
-6.72135
-6.87312
-6.99827
-7.09022
-7.14587
-7.16547
-7.1515
-7.10715
-7.03492
-6.936
-6.81049
-6.65817
-6.47941
-6.27573
-6.0499
-5.80552
-5.54633
-5.27562
-4.99596
-4.70939
-4.4178
-4.12323
-3.82787
-3.53374
-3.24233
-2.95432
-2.66957
-2.38744
-2.10717
-1.82831
-1.55097
-1.2757
-1.00311
-0.733452
-0.466273
-0.200332
0.0662265
0.33548
0.609256
0.888728
1.17421
1.46517
1.76054
2.05899
2.35932
2.66045
2.96127
3.26044
3.5562
3.84652
4.1295
4.40378
4.66875
4.92454
5.17159
5.41008
5.63938
5.85779
6.0629
6.25218
6.42387
6.57738
6.71328
6.83277
6.93671
7.02484
7.09542
7.14566
7.17286
7.17561
7.15458
7.11244
7.05291
6.97932
6.89309
6.79291
6.67496
6.53411
6.36538
6.16518
5.93187
-6.26032
-6.45136
-6.61888
-6.77639
-6.93858
-7.11752
-7.31902
-7.5409
-7.77316
-8.00031
-8.20492
-8.3717
-8.49057
-8.55811
-8.577
-8.55372
-8.49523
-8.40612
-8.28754
-8.13799
-7.9553
-7.7386
-7.48948
-7.2121
-6.91227
-6.59583
-6.26727
-5.9294
-5.58393
-5.23255
-4.87768
-4.52256
-4.17044
-3.82361
-3.48284
-3.14734
-2.81533
-2.48498
-2.15527
-1.82653
-1.5002
-1.178
-0.860981
-0.548774
-0.239465
0.0700819
0.383477
0.703872
1.0332
1.3718
1.7185
2.0712
2.4277
2.78635
3.14615
3.50624
3.8652
4.22059
4.5692
4.90782
5.23433
5.54823
5.85059
6.14326
6.42767
6.7035
6.9681
7.21705
7.44565
7.65072
7.83168
7.99051
8.1306
8.25483
8.36352
8.45354
8.51913
8.55437
8.55597
8.52497
8.46673
8.38912
8.29947
8.20132
8.09257
7.966
7.81198
7.62164
7.38886
7.11097
-7.32541
-7.51841
-7.67499
-7.81805
-7.97428
-8.16654
-8.40615
-8.68996
-9.00057
-9.31088
-9.59038
-9.81332
-9.96405
-10.0397
-10.0485
-10.0059
-9.92673
-9.81911
-9.68305
-9.51259
-9.30085
-9.04393
-8.74339
-8.40614
-8.04249
-7.66233
-7.27191
-6.87342
-6.46665
-6.05196
-5.63218
-5.21265
-4.79925
-4.39592
-4.00354
-3.61984
-3.24066
-2.86168
-2.48068
-2.09848
-1.71861
-1.34536
-0.981495
-0.627042
-0.278892
0.0684281
0.421414
0.78562
1.16431
1.55768
1.96312
2.37631
2.7932
3.21161
3.63129
4.0527
4.47493
4.8946
5.30604
5.70334
6.08279
6.44404
6.79026
7.1265
7.45725
7.78336
8.10052
8.40003
8.67246
8.91172
9.11722
9.29407
9.45061
9.59464
9.72834
9.84607
9.93552
9.98349
9.98243
9.93372
9.84806
9.74178
9.631
9.52392
9.417
9.2957
9.14128
8.93816
8.67668
8.35327
-8.46472
-8.63716
-8.74975
-8.83989
-8.95717
-9.1463
-9.42845
-9.7991
-10.227
-10.6644
-11.0558
-11.3575
-11.5443
-11.6159
-11.5928
-11.5095
-11.3978
-11.2717
-11.1268
-10.9454
-10.7103
-10.4109
-10.0491
-9.63717
-9.19549
-8.74267
-8.28728
-7.82854
-7.35994
-6.87795
-6.38557
-5.89321
-5.41289
-4.95186
-4.51119
-4.08534
-3.66519
-3.24086
-2.80742
-2.36669
-1.92715
-1.49889
-1.08821
-0.696033
-0.316965
0.0587368
0.443276
0.846559
1.2743
1.72615
2.19651
2.67599
3.15635
3.63485
4.11372
4.59769
5.08804
5.58012
6.06286
6.52416
6.95695
7.36097
7.74372
8.11695
8.49282
8.87535
9.2575
9.62112
9.94606
10.2203
10.4429
10.6257
10.7874
10.948
11.1148
11.2779
11.4102
11.4818
11.476
11.3941
11.2575
11.0993
10.9556
10.8447
10.7605
10.6715
10.5391
10.3372
10.0522
9.6822
-9.7253
-9.84113
-9.85582
-9.82164
-9.83573
-9.99129
-10.3225
-10.825
-11.4387
-12.0831
-12.6495
-13.0661
-13.2892
-13.3278
-13.2227
-13.0528
-12.8889
-12.7506
-12.6223
-12.4548
-12.2114
-11.8672
-11.4262
-10.9104
-10.3639
-9.82608
-9.3069
-8.79729
-8.27199
-7.71844
-7.1385
-6.55599
-5.99835
-5.4781
-4.99714
-4.54233
-4.09546
-3.63288
-3.14443
-2.63299
-2.11923
-1.62691
-1.16814
-0.746023
-0.350114
0.0363652
0.438168
0.872272
1.34958
1.86792
2.41673
2.97436
3.52207
4.05743
4.58866
5.13332
5.69843
6.27884
6.85033
7.38574
7.8722
8.30818
8.71044
9.10314
9.51827
9.96733
10.4406
10.8973
11.292
11.6025
11.8253
11.9867
12.125
12.2916
12.5057
12.7532
12.9713
13.0903
13.0781
12.9322
12.6967
12.435
12.2317
12.1257
12.1099
12.1085
12.0361
11.8546
11.5491
11.1326
-11.1921
-11.1899
-11.0314
-10.7331
-10.51
-10.583
-10.9699
-11.6908
-12.6066
-13.6146
-14.4593
-15.0536
-15.3002
-15.2472
-14.9463
-14.5878
-14.3437
-14.2156
-14.1748
-14.0741
-13.8584
-13.4634
-12.9117
-12.2284
-11.5203
-10.8833
-10.3133
-9.78926
-9.22534
-8.59752
-7.8957
-7.1835
-6.53051
-5.94827
-5.44591
-4.98834
-4.54881
-4.06262
-3.51495
-2.90303
-2.28077
-1.70695
-1.19555
-0.75852
-0.369922
-0.00830033
0.386329
0.835585
1.3656
1.96572
2.62417
3.28698
3.90562
4.486
5.04436
5.63958
6.28693
6.9905
7.68989
8.31799
8.86033
9.30416
9.69113
10.0572
10.495
11.0246
11.6477
12.2629
12.7593
13.1113
13.2965
13.3811
13.4219
13.567
13.8487
14.271
14.6752
14.888
14.8731
14.5997
14.174
13.6869
13.3681
13.2774
13.4388
13.6484
13.6906
13.5509
13.2064
12.756
-13.0258
-12.7633
-12.4076
-11.536
-10.7568
-10.7217
-11.1353
-12.2744
-13.6406
-15.38
-16.6284
-17.5406
-17.7413
-17.5223
-16.752
-15.9571
-15.6305
-15.5538
-15.8125
-15.8582
-15.7629
-15.2842
-14.586
-13.5815
-12.5736
-11.8436
-11.253
-10.838
-10.2702
-9.58266
-8.66739
-7.72529
-6.9604
-6.30305
-5.82984
-5.40805
-5.06904
-4.5806
-3.97777
-3.18771
-2.37235
-1.69698
-1.11571
-0.70116
-0.350776
-0.100421
0.255882
0.682623
1.28065
1.97949
2.82526
3.6631
4.34417
4.94615
5.44685
6.07062
6.79428
7.70801
8.63186
9.37346
9.98997
10.3816
10.7015
10.9075
11.3392
11.9469
12.8653
13.799
14.4339
14.8592
14.9116
14.8378
14.5675
14.6447
14.988
15.8138
16.6535
17.0125
17.0389
16.485
15.7386
14.6948
14.1749
14.0644
14.697
15.428
15.6059
15.5408
15.0152
14.6308
-15.5871
-14.4702
-14.5259
-12.2048
-9.93086
-10.2134
-10.2545
-12.5298
-14.1359
-17.8509
-19.2801
-21.051
-20.7855
-20.59
-18.5915
-16.6509
-16.5559
-16.4081
-17.7559
-17.8442
-18.2185
-17.4202
-16.7006
-14.9385
-13.2258
-12.6024
-11.9392
-12.1062
-11.4866
-10.8952
-9.47711
-8.01137
-7.2349
-6.39215
-6.13931
-5.70814
-5.80409
-5.263
-4.7099
-3.50854
-2.26207
-1.55124
-0.795538
-0.55123
-0.187435
-0.345029
0.0240596
0.282991
1.05053
1.78165
3.03772
4.26491
4.89654
5.55207
5.67194
6.35766
7.02772
8.41076
9.83603
10.6088
11.4431
11.5622
11.8753
11.4324
11.9292
12.4209
14.0605
15.7645
16.4093
17.1435
16.7076
16.5763
15.2115
15.338
15.4313
17.3353
19.3226
19.6143
20.0388
18.6461
17.7296
14.947
14.3905
13.7798
15.8119
18.0025
17.8694
18.1924
16.619
16.9653
-20.1621
-14.4871
-20.0653
-12.8043
-5.42248
-10.0518
-6.15582
-13.7478
-11.5939
-23.6128
-21.4389
-27.4933
-23.7284
-26.2532
-20.3474
-14.6865
-17.5571
-15.1082
-21.5128
-19.418
-22.3623
-19.443
-20.3164
-16.2243
-12.3092
-13.4182
-11.43
-14.5072
-12.6625
-13.3984
-10.3555
-7.30488
-7.60487
-5.63174
-6.7056
-5.24926
-7.45665
-5.96283
-6.37575
-3.89443
-1.38048
-1.47013
0.261073
-0.573387
0.726672
-1.34821
-0.0492945
-0.849261
0.87269
0.827678
3.29171
5.72433
5.41451
6.92934
5.08216
6.66715
6.23436
9.05264
11.9798
11.7557
13.9259
12.4633
14.1378
10.6036
12.5264
11.2416
15.1625
19.255
18.2556
21.1123
18.0646
20.0904
13.7074
16.0785
13.2664
18.7362
24.4325
22.0243
25.6549
20.1207
22.407
11.993
14.6833
9.68911
16.6976
23.9222
19.4756
23.5739
15.4577
20.8671
-34.2918
1.70237
-44.0917
-13.5766
16.3834
-22.165
14.4872
-28.9984
11.3588
-49.8106
-11.7474
-48.0738
-17.6126
-44.0552
-21.7489
-0.435161
-26.2169
-1.05795
-37.5075
-13.7346
-34.9489
-16.0032
-31.0818
-17.2544
-4.15695
-18.6933
-3.62567
-23.9952
-10.1218
-21.3428
-11.2442
-1.77292
-11.2476
-0.483076
-10.9149
0.485857
-14.4388
-3.91678
-12.2092
-4.32707
3.25069
-4.01077
5.01258
-3.66905
6.50091
-7.20974
2.89968
-5.61328
3.23912
-3.73954
3.59083
11.1329
3.30494
13.1478
-0.45023
9.88198
0.759102
9.53745
18.6613
9.4545
21.6398
8.84685
23.9001
1.91605
17.7418
2.5651
16.0167
30.077
14.5482
33.5824
12.1144
35.7121
-0.403942
24.2811
-0.82628
19.8094
41.2112
15.7365
44.4665
10.3319
45.371
-9.83312
26.0397
-11.6872
17.2702
46.6463
8.77536
46.5425
-5.18238
34.2405
29126.3
29073.7
29020.2
28965.8
28910.5
28854.6
28797.9
28740.7
28683
28624.8
28566.2
28507.4
28448.3
28389
28329.7
1.4946
1.4032
1.30445
1.20004
1.09181
0.981548
0.870842
0.760944
0.652739
0.546747
0.443159
0.341889
0.242634
0.144929
0.0481989
2.50042
2.34665
2.18021
2.00416
1.82179
1.63629
1.4504
1.26626
1.08535
0.908499
0.73596
0.56753
0.40264
0.240454
0.07996
3.5214
3.30281
3.06561
2.81461
2.55493
2.29143
2.02818
1.76831
1.51385
1.26587
1.02459
0.78958
0.559901
0.334263
0.111138
4.56478
4.27756
3.9648
3.63371
3.29188
2.94626
2.60255
2.26487
1.93579
1.61644
1.30687
1.00622
0.713067
0.425526
0.141452
5.63942
5.27785
4.8823
4.46354
4.0326
3.5992
3.17089
2.75283
2.34792
1.95716
1.58011
1.21529
0.860551
0.513277
0.17058
6.75636
6.31189
5.82281
5.30538
4.77565
4.24698
3.72898
3.22766
2.74589
2.28411
1.84102
1.41419
1.00049
0.596402
0.198149
7.93023
7.38989
6.79111
6.15905
5.51724
4.88377
4.27024
3.68291
3.12388
2.59235
2.0856
1.59986
1.13075
0.673636
0.223742
9.18174
8.52525
7.79173
7.02167
6.2498
5.49992
4.78486
4.10966
3.47433
2.87576
2.30913
1.76882
1.24895
0.743596
0.246905
10.543
9.73693
8.82821
7.88549
6.95983
6.08046
5.25887
4.49611
3.78781
3.12713
2.50626
1.91728
1.35257
0.804844
0.267173
12.0674
11.0516
9.89885
8.7323
7.62385
6.60299
5.67354
4.82762
4.0534
3.33854
2.67138
2.0414
1.43912
0.855992
0.284097
13.8554
12.5025
10.9825
9.5201
8.20017
7.03402
6.00436
5.08706
4.25939
3.50206
2.79921
2.13769
1.50644
0.895853
0.297301
16.1488
14.1188
12.0075
10.1642
8.62194
7.32802
6.22236
5.25653
4.39476
3.61093
2.88556
2.2036
1.553
0.923619
0.306531
19.5812
15.8162
12.7639
10.507
8.79496
7.4332
6.29998
5.32154
4.45195
3.66118
2.92834
2.23803
1.57824
0.939028
0.311712
25.3742
16.8003
12.7237
10.3041
8.61747
7.30933
6.22229
5.27729
4.43008
3.65332
2.92843
2.24182
1.5828
0.942465
0.312972
-0.329321
-0.991408
-1.66399
-2.35457
-3.07154
-3.82468
-4.626
-5.49117
-6.44202
-7.51154
-8.75446
-10.2714
-12.2686
-15.2168
-20.2623
-0.327623
-0.985931
-1.65353
-2.33692
-3.04312
-3.77991
-4.55611
-5.38198
-6.26969
-7.23356
-8.28874
-9.4412
-10.6378
-11.5328
-10.4089
-0.323779
-0.973954
-1.63201
-2.30332
-2.99335
-3.70764
-4.45154
-5.22959
-6.04409
-6.89172
-7.75503
-8.58005
-9.21571
-9.25052
-7.60652
-0.318102
-0.956452
-1.60123
-2.25663
-2.92663
-3.61468
-4.32307
-5.05161
-5.79515
-6.53865
-7.2476
-7.84992
-8.21013
-8.1338
-7.60182
-0.310913
-0.934435
-1.56299
-2.19971
-2.84728
-3.50748
-4.18041
-4.86291
-5.54588
-6.20934
-6.81405
-7.2873
-7.50742
-7.33288
-6.91264
-0.302526
-0.90887
-1.51901
-2.13518
-2.75905
-3.39133
-4.03091
-4.67359
-5.30975
-5.9206
-6.47169
-6.89969
-7.07862
-6.70207
-4.6595
-0.293224
-0.880619
-1.47077
-2.0652
-2.66491
-3.27001
-3.87911
-4.4885
-5.09077
-5.67307
-6.2148
-6.68436
-7.03532
-7.22782
-7.45914
-0.283247
-0.850405
-1.41948
-1.99147
-2.56695
-3.14581
-3.72699
-4.30811
-4.88527
-5.45334
-6.00796
-6.55083
-7.10174
-7.72619
-8.53486
-0.272792
-0.818811
-1.36608
-1.91522
-2.46654
-3.01993
-3.57482
-4.13029
-4.68572
-5.24257
-5.80913
-6.41129
-7.11675
-8.09622
-9.78163
-0.262016
-0.786301
-1.3113
-1.83736
-2.36459
-2.89291
-3.42213
-3.95235
-4.48491
-5.02473
-5.58537
-6.19964
-6.94112
-7.97558
-9.7111
-0.251047
-0.753245
-1.25573
-1.75859
-2.26177
-2.76516
-3.26866
-3.77264
-4.27884
-4.79213
-5.32416
-5.89934
-6.56168
-7.36771
-8.26017
-0.239989
-0.719949
-1.19983
-1.67949
-2.15872
-2.63722
-3.11473
-3.59128
-4.06765
-4.54628
-5.03278
-5.53822
-6.08217
-6.69948
-7.48084
-0.228932
-0.686671
-1.14401
-1.60062
-2.05608
-2.50986
-2.96136
-3.4099
-3.85472
-4.29476
-4.72805
-5.15011
-5.55144
-5.91703
-6.21361
-0.217951
-0.653637
-1.08865
-1.52248
-1.95452
-2.38399
-2.80994
-3.23098
-3.64494
-4.04776
-4.43096
-4.77615
-5.04533
-5.18226
-5.27053
-0.20711
-0.621037
-1.03407
-1.44553
-1.85465
-2.26048
-2.6618
-3.05685
-3.44276
-3.81422
-4.16013
-4.45476
-4.63087
-4.48108
-3.19713
-0.196464
-0.589036
-0.980524
-1.37014
-1.75699
-2.14003
-2.51793
-2.88894
-3.25046
-3.59827
-3.92479
-4.21549
-4.44257
-4.56736
-4.67245
-0.186056
-0.557764
-0.928244
-1.29662
-1.66192
-2.02306
-2.37876
-2.72752
-3.06757
-3.39697
-3.7142
-4.02024
-4.32517
-4.66718
-5.14443
-0.175921
-0.527322
-0.87739
-1.22518
-1.56969
-1.90981
-2.24434
-2.57206
-2.89195
-3.204
-3.51129
-3.82564
-4.18189
-4.67295
-5.52701
-0.166085
-0.497789
-0.828084
-1.15599
-1.48046
-1.80038
-2.11459
-2.42195
-2.72169
-3.01423
-3.30338
-3.60183
-3.94488
-4.42651
-5.30794
-0.156566
-0.469216
-0.780411
-1.08914
-1.39434
-1.69487
-1.98953
-2.27707
-2.55635
-2.82673
-3.08893
-3.34694
-3.61156
-3.90233
-4.20198
-0.147376
-0.441639
-0.734425
-1.02471
-1.31143
-1.5934
-1.86936
-2.13785
-2.39713
-2.64485
-2.87732
-3.08739
-3.26001
-3.37191
-3.48257
-0.138521
-0.415074
-0.690153
-0.962741
-1.23177
-1.49607
-1.75435
-2.005
-2.24587
-2.47349
-2.68121
-2.85379
-2.95058
-2.8423
-2.01932
-0.130001
-0.389522
-0.647592
-0.903217
-1.15536
-1.4029
-1.64458
-1.8789
-2.10377
-2.31592
-2.50946
-2.67278
-2.78351
-2.80898
-2.78915
-0.121812
-0.364969
-0.606715
-0.846093
-1.08212
-1.31376
-1.53991
-1.75932
-1.97045
-2.17125
-2.35865
-2.52826
-2.67563
-2.80709
-2.9836
-0.113946
-0.341387
-0.567469
-0.79128
-1.0119
-1.22841
-1.43989
-1.64545
-1.84429
-2.03584
-2.2202
-2.39917
-2.57878
-2.7739
-3.0091
-0.106392
-0.318743
-0.52979
-0.738669
-0.944527
-1.14654
-1.34397
-1.53624
-1.72317
-1.90542
-2.08547
-2.26962
-2.47116
-2.71287
-3.01232
-0.0991384
-0.296998
-0.493608
-0.688145
-0.879808
-1.06785
-1.25162
-1.43073
-1.60529
-1.7765
-1.9479
-2.12798
-2.33566
-2.61177
-3.04236
-0.0921729
-0.276117
-0.45886
-0.63961
-0.817597
-0.9921
-1.1625
-1.32837
-1.48972
-1.64745
-1.8043
-1.96717
-2.15266
-2.40343
-2.84826
-0.0854852
-0.256068
-0.425491
-0.592987
-0.757799
-0.9192
-1.07651
-1.22914
-1.37668
-1.519
-1.65654
-1.79067
-1.92434
-2.06034
-2.17033
-0.0790657
-0.236823
-0.393458
-0.548223
-0.700367
-0.849137
-0.993767
-1.13345
-1.26725
-1.39389
-1.51115
-1.61452
-1.69441
-1.73537
-1.7612
-0.0729057
-0.218356
-0.362723
-0.505277
-0.645275
-0.781947
-0.914462
-1.04185
-1.16281
-1.27529
-1.37542
-1.45469
-1.49156
-1.42093
-0.994174
-0.066996
-0.200642
-0.333246
-0.464104
-0.592492
-0.717646
-0.838721
-0.954711
-1.06426
-1.16529
-1.25421
-1.32432
-1.36338
-1.35382
-1.31162
-0.0613269
-0.183651
-0.304982
-0.424648
-0.541956
-0.656178
-0.766517
-0.872054
-0.971643
-1.06373
-1.14606
-1.21553
-1.26901
-1.30943
-1.37101
-0.0558872
-0.16735
-0.277876
-0.38683
-0.493566
-0.597409
-0.697653
-0.793538
-0.884252
-0.968944
-1.04687
-1.11789
-1.18374
-1.25038
-1.3269
-0.0506641
-0.151701
-0.251862
-0.350557
-0.447187
-0.541145
-0.631821
-0.718625
-0.801058
-0.878879
-0.952503
-1.02386
-1.09796
-1.18451
-1.29497
-0.0456439
-0.136662
-0.226868
-0.315719
-0.402667
-0.487165
-0.568684
-0.646759
-0.721085
-0.79175
-0.85973
-0.927965
-1.00356
-1.10208
-1.25442
-0.0408118
-0.122188
-0.202819
-0.282207
-0.359852
-0.435258
-0.507948
-0.577508
-0.643671
-0.706504
-0.766804
-0.826985
-0.893289
-0.982328
-1.14704
-0.0361522
-0.108232
-0.179636
-0.24991
-0.318598
-0.385242
-0.449393
-0.510627
-0.568586
-0.623039
-0.67398
-0.721784
-0.767261
-0.810067
-0.832298
-0.0316494
-0.094747
-0.157239
-0.218717
-0.278767
-0.336963
-0.39287
-0.446032
-0.495953
-0.542029
-0.583355
-0.618228
-0.643119
-0.652134
-0.653052
-0.027287
-0.0816843
-0.135549
-0.188521
-0.240227
-0.29028
-0.338261
-0.383698
-0.426005
-0.464336
-0.497227
-0.521629
-0.530028
-0.499857
-0.345547
-0.023048
-0.0689929
-0.114482
-0.159206
-0.20284
-0.24504
-0.285426
-0.323549
-0.35883
-0.390436
-0.417009
-0.436169
-0.443743
-0.433812
-0.410828
-0.0189144
-0.0566191
-0.0939496
-0.13065
-0.166451
-0.201065
-0.234168
-0.265381
-0.294222
-0.320046
-0.341951
-0.358775
-0.369634
-0.376856
-0.398501
-0.0148674
-0.0445064
-0.0738567
-0.10272
-0.13089
-0.158142
-0.184229
-0.208866
-0.231719
-0.252387
-0.270432
-0.285541
-0.298066
-0.309906
-0.322439
-0.0108871
-0.0325952
-0.0541035
-0.0752752
-0.0959678
-0.11603
-0.135299
-0.153598
-0.170743
-0.186561
-0.200959
-0.214117
-0.226987
-0.242491
-0.26994
-0.00695313
-0.0208234
-0.0345851
-0.0481643
-0.0614853
-0.0744708
-0.0870437
-0.0991341
-0.110694
-0.121729
-0.132354
-0.142904
-0.154089
-0.166796
-0.178442
-0.00304434
-0.00912749
-0.0151941
-0.0212335
-0.0272368
-0.0331988
-0.0391247
-0.0450408
-0.0510147
-0.057186
-0.0638029
-0.0712567
-0.0801408
-0.0918461
-0.114772
0.000860537
0.00255672
0.00417779
0.00567185
0.00698317
0.0080482
0.00878764
0.00909241
0.00880034
0.00766444
0.00532875
0.00137983
-0.00423608
-0.00910905
0.00167218
0.00478273
0.0142932
0.0236381
0.0327046
0.0413749
0.0495225
0.0570033
0.0636414
0.069202
0.073349
0.0755834
0.0751741
0.0711544
0.0627579
0.0519253
0.00874324
0.0261451
0.0432926
0.0600135
0.0761314
0.0914619
0.105807
0.118941
0.130588
0.140366
0.14768
0.151479
0.14959
0.136322
0.090777
0.0127627
0.0381745
0.0632446
0.0877431
0.111437
0.134089
0.155455
0.175279
0.193278
0.209099
0.222225
0.231743
0.235937
0.232308
0.224087
0.0168615
0.0504422
0.0835953
0.116034
0.14747
0.177614
0.20618
0.232891
0.257486
0.279714
0.299289
0.315716
0.32773
0.3315
0.31254
0.0210596
0.0630082
0.104444
0.145024
0.184403
0.222239
0.258199
0.291981
0.323349
0.352182
0.378553
0.402769
0.425266
0.446499
0.471538
0.0253767
0.0759316
0.12589
0.174852
0.222414
0.268173
0.311738
0.352759
0.390983
0.426374
0.459332
0.491037
0.523704
0.558882
0.581941
0.0298321
0.0892708
0.148032
0.205657
0.261682
0.315636
0.367052
0.415489
0.460599
0.502273
0.540999
0.57866
0.620425
0.679715
0.795716
0.0344447
0.103083
0.170965
0.237577
0.302394
0.364871
0.424445
0.480543
0.532615
0.580239
0.623429
0.66346
0.705008
0.761207
0.862821
0.0392324
0.117422
0.194783
0.270749
0.344736
0.416128
0.484262
0.548407
0.607737
0.661304
0.708076
0.747236
0.77945
0.811203
0.866466
0.044212
0.132339
0.219572
0.3053
0.388887
0.469656
0.546859
0.619629
0.686879
0.74711
0.798034
0.835865
0.854249
0.844915
0.821397
0.0493983
0.147879
0.245411
0.341343
0.435001
0.525668
0.612546
0.694699
0.770915
0.839402
0.89711
0.938032
0.948331
0.888518
0.610303
0.0548042
0.164082
0.272363
0.378969
0.4832
0.584318
0.681524
0.773908
0.860336
0.939203
1.00787
1.0615
1.09114
1.08383
1.05368
0.0604406
0.180978
0.300481
0.418249
0.533565
0.645692
0.753861
0.857267
0.955029
1.04611
1.12909
1.20166
1.25964
1.29505
1.28651
0.0663163
0.198594
0.329807
0.459235
0.586151
0.70982
0.829516
0.944558
1.05438
1.15867
1.25757
1.35199
1.44386
1.53684
1.6472
0.0724385
0.216952
0.360374
0.501969
0.640995
0.776712
0.908412
1.03549
1.15759
1.27499
1.3892
1.50414
1.62734
1.76661
1.8924
0.0788133
0.23607
0.392212
0.546489
0.69814
0.846399
0.990525
1.12988
1.26409
1.39355
1.52034
1.65058
1.79971
2.0058
2.37339
0.0854454
0.255961
0.425346
0.592834
0.757641
0.918957
1.07596
1.22784
1.37392
1.51397
1.6491
1.78394
1.93257
2.1329
2.47915
0.0923382
0.276637
0.459797
0.641042
0.819565
0.994513
1.16495
1.32983
1.48794
1.63785
1.77807
1.90775
2.02956
2.15872
2.34177
0.0994932
0.298103
0.495576
0.691136
0.88397
1.0732
1.2578
1.43653
1.60765
1.76846
1.91437
2.03706
2.12149
2.14717
2.14951
0.106909
0.320355
0.53268
0.743119
0.950876
1.15508
1.35473
1.54853
1.73453
1.90942
2.06682
2.19294
2.25424
2.15186
1.50987
0.114583
0.343384
0.571089
0.796959
1.02024
1.24012
1.45572
1.66592
1.86911
2.06254
2.24099
2.39387
2.50066
2.5313
2.52146
0.122509
0.36717
0.610766
0.85259
1.09194
1.32813
1.56045
1.78818
2.01046
2.22607
2.43289
2.62681
2.79999
2.93886
3.01186
0.13068
0.391691
0.651665
0.909925
1.16583
1.4188
1.66835
1.9142
2.15642
2.39568
2.63375
2.87414
3.12315
3.39216
3.71973
0.13909
0.416927
0.693742
0.968881
1.24174
1.51182
1.77879
2.04273
2.30441
2.56611
2.83296
3.11549
3.43239
3.8048
4.18282
0.147735
0.442863
0.736969
1.0294
1.31956
1.60696
1.89132
2.17278
2.45237
2.73292
3.02126
3.33293
3.70308
4.21353
5.0793
0.156616
0.4695
0.781343
1.09148
1.39927
1.70418
2.00582
2.3041
2.59961
2.89428
3.19331
3.50974
3.87629
4.37548
5.21459
0.165735
0.496846
0.826886
1.15515
1.48095
1.80363
2.12259
2.43731
2.74737
3.05256
3.35321
3.65169
3.95734
4.30133
4.75805
0.175098
0.524924
0.873641
1.2205
1.56475
1.90562
2.24226
2.5737
2.89846
3.21391
3.51457
3.78858
4.01169
4.14885
4.27545
0.184711
0.553755
0.921657
1.28763
1.65086
2.01048
2.36549
2.71465
3.05594
3.38546
3.69434
3.96074
4.12564
4.00361
2.86725
0.194582
0.583362
0.970982
1.35663
1.73944
2.11847
2.49272
2.86098
3.22152
3.57125
3.90352
4.20327
4.43875
4.56268
4.65214
0.204711
0.613754
1.02164
1.42755
1.83057
2.22973
2.62404
3.01257
3.39449
3.76905
4.13516
4.4903
4.82921
5.14555
5.43009
0.215095
0.644925
1.07365
1.50042
1.92431
2.34427
2.75928
3.16864
3.57245
3.97259
4.37428
4.78844
5.23519
5.75035
6.41702
0.225721
0.676841
1.12696
1.57524
2.0207
2.46215
2.89835
3.32845
3.75282
4.17491
4.60458
5.06377
5.59347
6.24972
7.00619
0.236559
0.709428
1.18148
1.65197
2.11981
2.58358
3.04156
3.4921
3.93462
4.37179
4.81421
5.28993
5.86365
6.67925
8.07824
0.247559
0.742548
1.23706
1.73046
2.22165
2.70892
3.1898
3.66119
4.11998
4.56483
5.00052
5.44782
5.96561
6.70337
8.04369
0.258638
0.775967
1.29334
1.8104
2.32613
2.83859
3.3445
3.83887
4.31484
4.76403
5.17855
5.5565
5.91453
6.30872
6.81381
0.269667
0.809318
1.34979
1.89117
2.43278
2.9727
3.50707
4.02917
4.5281
4.9871
5.38175
5.67876
5.83804
5.83674
5.86221
0.280462
0.842059
1.40554
1.9717
2.54051
3.11053
3.67801
4.23539
4.76888
5.25461
5.65253
5.89635
5.87278
5.34585
3.53418
0.290776
0.873449
1.45937
2.05031
2.64728
3.24999
3.85582
4.45802
5.04261
5.58287
6.03003
6.2993
6.25675
5.74681
4.85639
0.300298
0.90254
1.50965
2.12462
2.74995
3.38717
4.03599
4.69269
5.3469
5.97551
6.53078
6.91843
6.96493
6.41163
5.18182
0.30866
0.928202
1.5544
2.19165
2.84425
3.51615
4.21055
4.92889
5.66871
6.41878
7.14761
7.77406
8.08925
7.54582
4.72675
0.315464
0.949194
1.59139
2.24793
2.92502
3.62936
4.36832
5.14998
5.98313
6.87649
7.83518
8.84543
9.80942
10.2597
8.0487
0.320306
0.964254
1.61835
2.28983
2.98674
3.71842
4.49629
5.33514
6.25549
7.28845
8.48646
9.94846
11.8861
14.821
20.1833
19.5351
14.1584
11.3313
9.50528
8.13487
7.00791
6.03012
5.15349
4.35019
3.60207
2.89602
2.22184
1.57108
0.936385
0.311097
6.9875
9.45859
9.22078
8.40799
7.50173
6.616
5.77601
4.98371
4.23469
3.52286
2.84187
2.18552
1.54795
0.923563
0.306991
3.32665
6.63933
7.50911
7.3752
6.85396
6.192
5.48848
4.78363
4.09318
3.4221
2.77047
2.13607
1.5156
0.905264
0.30107
2.88343
5.51603
6.49404
6.61101
6.30357
5.79654
5.20158
4.57333
3.93803
3.30769
2.687
2.07685
1.47613
0.882654
0.293707
4.61646
5.54136
6.07656
6.14118
5.89145
5.46181
4.93753
4.36769
3.77927
3.18643
2.59608
2.01098
1.43155
0.856858
0.285263
5.41069
5.83695
5.9855
5.88927
5.60395
5.19252
4.70485
4.17475
3.6234
3.06332
2.50141
1.94109
1.3836
0.82887
0.276063
6.71542
6.32498
6.06405
5.76832
5.40371
4.97591
4.50139
3.99636
3.47344
2.94133
2.40552
1.86914
1.33367
0.799504
0.266374
7.37465
6.72266
6.16638
5.69488
5.24705
4.79147
4.31888
3.83021
3.32971
2.82179
2.30993
1.79647
1.28276
0.769382
0.256406
8.4856
7.05348
6.20947
5.60468
5.0955
4.6186
4.14731
3.67209
3.19098
2.70485
2.21533
1.72388
1.23155
0.738944
0.24631
8.45401
6.9755
6.08607
5.44779
4.92129
4.4416
3.97825
3.5179
3.05559
2.59016
2.12197
1.65183
1.18049
0.708487
0.23619
7.26826
6.48808
5.78794
5.213
4.71433
4.25304
3.80692
3.36491
2.92222
2.47725
2.02988
1.58055
1.12981
0.678202
0.226117
6.62984
5.94476
5.40259
4.925
4.48119
4.05374
3.63255
3.21225
2.79032
2.36592
1.93906
1.51016
1.0797
0.648215
0.216135
5.58606
5.30193
4.97216
4.61332
4.23651
3.8499
3.45741
3.06057
2.66001
2.25619
1.84959
1.44077
1.03027
0.618609
0.206276
4.77673
4.69058
4.56172
4.31392
3.99847
3.65
3.28516
2.91135
2.53186
2.14829
1.7616
1.3725
0.981593
0.589443
0.196561
2.94029
4.10873
4.23372
4.06133
3.78322
3.46131
3.11901
2.76597
2.40645
2.04248
1.67521
1.30542
0.933743
0.560762
0.187006
4.37608