/*--------------------------------*- C++ -*----------------------------------*\
| =========                 |                                                 |
| \\      /  F ield         | OpenFOAM: The Open Source CFD Toolbox           |
|  \\    /   O peration     | Version:  5.x                                   |
|   \\  /    A nd           | Web:      www.OpenFOAM.org                      |
|    \\/     M anipulation  |                                                 |
\*---------------------------------------------------------------------------*/
FoamFile
{
    version     2.0;
    format      ascii;
    class       volScalarField;
    location    "0.9";
    object      gradTx;
}
// * * * * * * * * * * * * * * * * * * * * * * * * * * * * * * * * * * * * * //

dimensions      [0 -1 0 1 0 0 0];

internalField   nonuniform List<scalar> 
6300
(
-58.1252
-58.0619
-57.935
-57.7442
-57.4886
-57.1678
-56.781
-56.3278
-55.8082
-55.2227
-54.5724
-53.8593
-53.0862
-52.2564
-51.3739
-58.1873
-58.1242
-57.9978
-57.8075
-57.5527
-57.2325
-56.8462
-56.3931
-55.873
-55.2864
-54.6342
-53.9184
-53.1419
-52.3082
-51.4218
-58.311
-58.2485
-58.1231
-57.9342
-57.6809
-57.3621
-56.9768
-56.5241
-56.0033
-55.4145
-54.7585
-54.0372
-53.2536
-52.412
-51.5171
-58.4961
-58.4344
-58.3106
-58.124
-57.8732
-57.557
-57.1737
-56.722
-56.2005
-55.6087
-54.947
-54.2172
-53.4226
-52.568
-51.6596
-58.7414
-58.681
-58.5597
-58.3765
-58.1298
-57.8177
-57.4379
-56.9883
-56.4667
-55.8716
-55.2026
-54.4611
-53.6505
-52.7768
-51.8483
-59.0458
-58.9873
-58.8695
-58.6912
-58.4504
-58.1446
-57.7708
-57.3255
-56.8053
-56.2073
-55.5297
-54.7729
-53.9405
-53.0397
-52.0817
-59.4074
-59.3513
-59.2384
-59.067
-58.8347
-58.5384
-58.1738
-57.7363
-57.2205
-56.6214
-55.9349
-55.1594
-54.2978
-53.3588
-52.358
-59.8237
-59.7709
-59.6644
-59.5023
-59.2818
-58.999
-58.6486
-58.224
-57.7179
-57.1217
-56.4279
-55.6311
-54.7315
-53.7389
-52.6747
-60.2914
-60.2427
-60.1445
-59.9946
-59.79
-59.5259
-59.196
-58.7922
-58.3039
-57.7186
-57.0228
-56.2043
-55.2573
-54.1896
-53.03
-60.8062
-60.7627
-60.6748
-60.5404
-60.3561
-60.1171
-59.8162
-59.4436
-58.9857
-58.4249
-57.7392
-56.9049
-55.9027
-54.7311
-53.425
-61.3631
-61.3257
-61.2501
-61.1344
-60.9756
-60.7688
-60.5068
-60.1789
-59.7692
-59.2547
-58.603
-57.7721
-56.7163
-55.4058
-53.8705
-61.9558
-61.9254
-61.864
-61.7702
-61.6416
-61.4742
-61.2619
-60.9946
-60.6561
-60.2202
-59.6445
-58.863
-57.7831
-56.3043
-54.4031
-62.5773
-62.5546
-62.5088
-62.4393
-62.3448
-62.2231
-62.0705
-61.88
-61.6391
-61.3242
-60.8902
-60.2508
-59.2472
-57.6239
-55.1294
-63.2199
-63.2052
-63.1757
-63.1318
-63.0736
-63.0016
-62.9155
-62.8143
-62.6944
-62.5455
-62.3396
-62.0013
-61.3298
-59.8135
-56.3918
-63.8757
-63.8688
-63.8554
-63.8368
-63.8149
-63.7925
-63.774
-63.7657
-63.7771
-63.8222
-63.9196
-64.0835
-64.2561
-63.9074
-59.7162
-50.5238
-49.7165
-48.8797
-48.0152
-47.1242
-46.2077
-45.2665
-44.3016
-43.3142
-42.3058
-41.2787
-40.2355
-39.1798
-38.1151
-37.0457
-35.9757
-34.9095
-33.8514
-32.8055
-31.7759
-30.7665
-29.781
-28.8227
-27.895
-27.0005
-26.1419
-25.3211
-24.5401
-23.8003
-23.1026
-22.448
-21.8369
-21.2698
-20.7466
-20.2674
-19.832
-19.4402
-19.0918
-18.7865
-18.5241
-18.3044
-18.1272
-17.9922
-17.8993
-17.8487
-17.8402
-17.8742
-17.951
-18.0709
-18.2344
-18.442
-18.694
-18.9909
-19.3328
-19.7198
-20.1518
-20.6285
-21.1496
-21.7143
-22.3218
-22.9713
-23.6614
-24.391
-25.1587
-25.9629
-26.8021
-27.6744
-28.578
-29.5106
-30.4701
-31.454
-32.4599
-33.4853
-34.5274
-35.5836
-36.651
-37.7267
-38.8078
-39.8911
-40.9735
-42.0521
-43.1239
-44.1858
-45.235
-46.2685
-47.283
-48.2753
-49.2417
-50.1787
-51.0824
-50.5683
-49.7581
-48.9191
-48.0528
-47.1604
-46.2427
-45.3003
-44.3338
-43.3441
-42.3326
-41.3016
-40.2538
-39.1926
-38.1222
-37.0466
-35.9705
-34.8982
-33.8342
-32.7825
-31.7474
-30.7327
-29.7422
-28.7795
-27.8477
-26.9497
-26.088
-25.2648
-24.4817
-23.7403
-23.0415
-22.3862
-21.7747
-21.2074
-20.6843
-20.2053
-19.7702
-19.3787
-19.0307
-18.7258
-18.4638
-18.2444
-18.0674
-17.9325
-17.8397
-17.7889
-17.7802
-17.8137
-17.8899
-18.0092
-18.172
-18.379
-18.6306
-18.9271
-19.2689
-19.656
-20.0884
-20.5657
-21.0877
-21.6536
-22.2625
-22.9136
-23.6055
-24.3371
-25.1069
-25.9134
-26.7552
-27.6302
-28.5367
-29.4726
-30.4354
-31.4229
-32.4325
-33.4616
-34.5076
-35.5677
-36.6393
-37.7193
-38.8046
-39.8923
-40.979
-42.0618
-43.1378
-44.2039
-45.2574
-46.2953
-47.3145
-48.3118
-49.2835
-50.2258
-51.1348
-50.6564
-49.8406
-48.9971
-48.1274
-47.2326
-46.3129
-45.3684
-44.399
-43.405
-42.3876
-41.3486
-40.2912
-39.219
-38.1366
-37.0487
-35.9601
-34.8755
-33.7994
-32.7361
-31.6899
-30.6646
-29.6642
-28.6924
-27.7524
-26.8473
-25.9795
-25.1513
-24.3643
-23.6198
-22.9188
-22.2621
-21.6499
-21.0824
-20.5595
-20.081
-19.6465
-19.2558
-18.9086
-18.6044
-18.3431
-18.1244
-17.948
-17.8135
-17.7208
-17.6698
-17.6604
-17.693
-17.768
-17.8858
-18.0473
-18.253
-18.5035
-18.7994
-19.1409
-19.5282
-19.9612
-20.4399
-20.9636
-21.5319
-22.1436
-22.7979
-23.4935
-24.229
-25.003
-25.8142
-26.661
-27.5416
-28.4541
-29.3963
-30.366
-31.3605
-32.3774
-33.414
-34.4677
-35.5358
-36.6156
-37.7042
-38.7983
-39.8947
-40.9901
-42.0813
-43.1655
-44.2398
-45.3017
-46.3484
-47.3771
-48.3845
-49.3668
-50.3201
-51.2399
-50.7872
-49.9624
-49.112
-48.2376
-47.3399
-46.4184
-45.472
-44.4993
-43.4996
-42.4733
-41.4222
-40.3497
-39.2602
-38.1591
-37.052
-35.9442
-34.8408
-33.7466
-32.6658
-31.6026
-30.5612
-29.5457
-28.56
-27.6076
-26.6918
-25.815
-24.9794
-24.1865
-23.4375
-22.7334
-22.0747
-21.4616
-20.8941
-20.3718
-19.8943
-19.461
-19.0715
-18.7254
-18.4224
-18.1623
-17.9447
-17.7692
-17.6355
-17.5431
-17.4917
-17.4814
-17.5124
-17.5853
-17.7009
-17.86
-18.0635
-18.3123
-18.607
-18.9479
-19.3354
-19.7695
-20.2501
-20.7766
-21.3484
-21.9646
-22.6238
-23.3249
-24.0663
-24.8466
-25.6646
-26.5189
-27.4077
-28.3292
-29.2813
-30.2613
-31.2666
-32.2944
-33.3421
-34.4073
-35.4874
-36.5797
-37.6813
-38.7888
-39.8986
-41.0071
-42.1109
-43.2072
-44.2934
-45.3674
-46.4271
-47.4699
-48.4927
-49.4915
-50.4618
-51.3985
-50.9584
-50.1206
-49.2606
-48.3808
-47.481
-46.5595
-45.613
-44.6381
-43.6322
-42.5945
-41.5266
-40.4326
-39.3183
-38.1905
-37.0563
-35.9222
-34.7934
-33.6748
-32.5705
-31.4845
-30.4212
-29.385
-28.3803
-27.411
-26.4807
-25.592
-24.7467
-23.9462
-23.1916
-22.4836
-21.8226
-21.2087
-20.6416
-20.1206
-19.6448
-19.2134
-18.8257
-18.4812
-18.1799
-17.9213
-17.7054
-17.5315
-17.399
-17.3073
-17.2557
-17.244
-17.2727
-17.3424
-17.4543
-17.6097
-17.81
-18.0562
-18.349
-18.6891
-19.0767
-19.5121
-19.995
-20.5253
-21.1021
-21.7244
-22.3906
-23.0991
-23.8483
-24.6369
-25.4638
-26.3277
-27.2275
-28.1612
-29.1267
-30.1209
-31.1407
-32.1832
-33.2457
-34.3259
-35.4216
-36.5307
-37.65
-38.776
-39.9043
-41.0307
-42.1513
-43.2631
-44.3641
-45.4533
-46.5295
-47.5909
-48.6346
-49.6565
-50.6509
-51.6119
-51.1663
-50.3099
-49.4374
-48.5521
-47.6531
-46.7362
-45.7947
-44.8214
-43.8104
-42.759
-41.6686
-40.5447
-39.3957
-38.2313
-37.061
-35.8925
-34.7318
-33.5829
-32.4492
-31.3343
-30.2427
-29.1795
-28.15
-27.1591
-26.2106
-25.3072
-24.4502
-23.6407
-22.8794
-22.1669
-21.5036
-20.8895
-20.3238
-19.8054
-19.3325
-18.9039
-18.5186
-18.1761
-17.8766
-17.6201
-17.4066
-17.2352
-17.1051
-17.0147
-16.9631
-16.9497
-16.9749
-17.0398
-17.1461
-17.2961
-17.4915
-17.7338
-18.0241
-18.3628
-18.7504
-19.187
-19.6729
-20.208
-20.7915
-21.4219
-22.0973
-22.8155
-23.5746
-24.373
-25.2103
-26.0858
-26.999
-27.9484
-28.9313
-29.9441
-30.9828
-32.0437
-33.1242
-34.2224
-35.3371
-36.467
-37.6093
-38.7598
-39.9129
-41.0627
-42.2041
-43.3341
-44.4517
-45.5576
-46.6527
-47.7368
-48.8076
-49.8601
-50.8876
-51.8819
-51.405
-50.5214
-49.6323
-48.7425
-47.8504
-46.9479
-46.022
-45.0587
-44.0466
-42.9795
-41.8589
-40.6931
-39.4954
-38.2808
-37.0631
-35.8522
-34.6535
-33.4694
-32.3012
-31.1511
-30.0239
-28.9261
-27.8648
-26.8468
-25.8765
-24.9561
-24.0862
-23.2667
-22.4978
-21.7802
-21.1147
-20.5014
-19.939
-19.4253
-18.9575
-18.5332
-18.1508
-17.8103
-17.5124
-17.2582
-17.0479
-16.8808
-16.7548
-16.6675
-16.6167
-16.6011
-16.621
-16.6785
-16.7764
-16.918
-17.1064
-17.3436
-17.6305
-17.9673
-18.3544
-18.7921
-19.2811
-19.822
-20.4142
-21.0557
-21.7435
-22.4742
-23.2449
-24.0543
-24.9024
-25.7905
-26.7192
-27.688
-28.6935
-29.7306
-30.7934
-31.8767
-32.9776
-34.0954
-35.2312
-36.3857
-37.5571
-38.74
-39.9263
-41.1065
-42.2733
-43.4228
-44.5559
-45.677
-46.7912
-47.9015
-49.0061
-50.0992
-51.1712
-52.2109
-51.6647
-50.7401
-49.8275
-48.9357
-48.0624
-47.1927
-46.3028
-45.3664
-44.3617
-43.2771
-42.1143
-40.8875
-39.6194
-38.335
-37.0557
-35.7944
-34.5547
-33.3336
-32.1274
-30.9356
-29.7634
-28.6205
-27.5182
-26.4665
-25.4711
-24.5332
-23.6505
-22.8207
-22.0432
-21.3194
-20.6516
-20.0408
-19.4851
-18.9802
-18.521
-18.1029
-17.7238
-17.3841
-17.0865
-16.834
-16.6283
-16.4682
-16.35
-16.2689
-16.2205
-16.2022
-16.2144
-16.2601
-16.3446
-16.4737
-16.6522
-16.8828
-17.1659
-17.5007
-17.8865
-18.3242
-18.8157
-19.3632
-19.9668
-20.6238
-21.3289
-22.076
-22.8605
-23.6805
-24.538
-25.4373
-26.3827
-27.3753
-28.4109
-29.4808
-30.575
-31.685
-32.807
-33.9429
-35.0987
-36.2803
-37.4883
-38.7156
-39.9482
-41.1698
-42.3671
-43.5348
-44.6771
-45.8059
-46.9351
-48.0735
-49.2208
-50.3679
-51.5004
-52.6022
-51.9306
-50.9409
-49.9919
-49.1017
-48.2686
-47.4661
-46.6501
-45.772
-44.7917
-43.6873
-42.4618
-41.1415
-39.767
-38.3822
-37.0226
-35.706
-34.4293
-33.177
-31.9333
-30.6925
-29.4615
-28.2571
-27.0995
-26.0057
-24.9839
-24.0314
-23.1395
-22.3004
-21.512
-20.7788
-20.1075
-19.5018
-18.9589
-18.4705
-18.0262
-17.6177
-17.241
-16.8983
-16.5966
-16.3437
-16.1442
-15.9963
-15.8929
-15.8244
-15.7821
-15.7607
-15.7604
-15.787
-15.8499
-15.9594
-16.124
-16.3475
-16.6281
-16.9616
-17.3451
-17.7797
-18.2708
-18.8247
-19.4437
-20.1236
-20.8546
-21.6252
-22.426
-23.2539
-24.1142
-25.0185
-25.9792
-27.0016
-28.0795
-29.1969
-30.3346
-31.4767
-32.6169
-33.7621
-34.9295
-36.1371
-37.3922
-38.6837
-39.986
-41.2678
-42.5036
-43.6833
-44.8174
-45.9338
-47.0651
-48.2323
-49.4352
-50.6567
-51.873
-53.0605
-52.1803
-51.0822
-50.0707
-49.1846
-48.4301
-47.7582
-47.0861
-46.3246
-45.4
-44.2717
-42.946
-41.4736
-39.9296
-38.3933
-36.9279
-35.5605
-34.2694
-33.0084
-31.7358
-30.4358
-29.1221
-27.8271
-26.5897
-25.4421
-24.3977
-23.4433
-22.5535
-21.7079
-20.9025
-20.1501
-19.4699
-18.8736
-18.3555
-17.8982
-17.4812
-17.0877
-16.7104
-16.3548
-16.0375
-15.7777
-15.587
-15.4615
-15.3866
-15.3434
-15.3148
-15.2899
-15.269
-15.2629
-15.2891
-15.3671
-15.5124
-15.731
-16.0153
-16.3518
-16.7311
-17.155
-17.6368
-18.1934
-18.834
-19.5509
-20.3247
-21.1319
-21.9533
-22.7816
-23.6279
-24.5197
-25.4878
-26.5491
-27.6918
-28.8846
-30.0886
-31.2717
-32.4202
-33.55
-34.7028
-35.9258
-37.2438
-38.6367
-40.0534
-41.432
-42.7209
-43.8971
-44.9827
-46.04
-47.1429
-48.3392
-49.622
-50.9522
-52.2863
-53.5922
-52.3812
-51.0975
-49.9685
-49.0776
-48.4722
-48.0502
-47.6505
-47.1115
-46.3015
-45.1402
-43.6414
-41.9091
-40.0811
-38.3024
-36.6925
-35.3055
-34.0667
-32.8571
-31.5784
-30.1994
-28.7564
-27.3148
-25.9513
-24.7309
-23.6827
-22.7631
-21.905
-21.0585
-20.2174
-19.4186
-18.7126
-18.1337
-17.6655
-17.269
-16.9033
-16.5357
-16.1497
-15.7571
-15.3967
-15.1135
-14.9369
-14.855
-14.8358
-14.8428
-14.8432
-14.8147
-14.7573
-14.6933
-14.6551
-14.6789
-14.7963
-15.0211
-15.3284
-15.6817
-16.054
-16.448
-16.8962
-17.4424
-18.1154
-18.8973
-19.7477
-20.6193
-21.472
-22.2845
-23.0771
-23.9118
-24.8633
-25.98
-27.2332
-28.5569
-29.8736
-31.1171
-32.251
-33.3052
-34.3756
-35.5784
-36.9876
-38.5555
-40.1757
-41.7255
-43.1003
-44.2412
-45.1885
-46.08
-47.0857
-48.3209
-49.74
-51.2411
-52.7393
-54.2035
-52.4812
-50.8893
-49.5226
-48.5589
-48.25
-48.3102
-48.4154
-48.2886
-47.7086
-46.4949
-44.6728
-42.4827
-40.1619
-37.9687
-36.1367
-34.8373
-33.8227
-32.8057
-31.566
-30.0561
-28.3891
-26.691
-25.1077
-23.7724
-22.7836
-21.995
-21.2406
-20.4023
-19.4724
-18.5546
-17.7731
-17.2353
-16.8732
-16.5967
-16.3293
-16.0112
-15.5995
-15.1141
-14.646
-14.2967
-14.1517
-14.1592
-14.2484
-14.3527
-14.4145
-14.3824
-14.2563
-14.0877
-13.933
-13.8568
-13.9269
-14.1932
-14.5765
-14.9854
-15.3468
-15.6639
-16.0157
-16.5099
-17.241
-18.1463
-19.1413
-20.1349
-21.0497
-21.8169
-22.467
-23.1365
-24.0019
-25.2151
-26.6738
-28.24
-29.7648
-31.1212
-32.1971
-33.0378
-33.858
-34.934
-36.5034
-38.3992
-40.3994
-42.2708
-43.8162
-44.8642
-45.4741
-45.9552
-46.6976
-48.037
-49.739
-51.5332
-53.2402
-54.8839
-52.3583
-50.3557
-48.4957
-47.0965
-47.4951
-48.5044
-49.5137
-50.1179
-50.0281
-48.7255
-46.2342
-43.2447
-40.0591
-37.1152
-34.8143
-33.9597
-33.5828
-33.0755
-31.9436
-30.1399
-28.0676
-25.9026
-23.908
-22.316
-21.5973
-21.1784
-20.6983
-19.879
-18.711
-17.4953
-16.4837
-16.0853
-15.9588
-15.9124
-15.8293
-15.6227
-15.1567
-14.4476
-13.7252
-13.187
-13.148
-13.347
-13.6408
-13.9248
-14.1223
-14.0868
-13.8177
-13.4636
-13.0989
-12.8253
-12.776
-13.1984
-13.7888
-14.3585
-14.7046
-14.8311
-14.9314
-15.2373
-16.1169
-17.2676
-18.5379
-19.7655
-20.841
-21.5193
-21.8299
-22.0804
-22.6408
-24.0978
-25.9609
-27.9835
-29.8994
-31.5301
-32.4827
-32.8006
-32.9726
-33.5798
-35.5493
-38.093
-40.8086
-43.2858
-45.2484
-46.1176
-45.945
-45.4535
-45.4494
-47.2302
-49.6046
-51.9499
-53.8313
-55.5106
-51.48
-49.6158
-46.8041
-43.0449
-45.8603
-48.6986
-51.195
-52.9463
-54.094
-52.6678
-48.5129
-44.2893
-39.6086
-35.3359
-31.4098
-32.3946
-33.5313
-34.2457
-33.2893
-30.6112
-27.8804
-24.8696
-22.1297
-19.6026
-19.9803
-20.4511
-20.6453
-19.8592
-18.0192
-16.1432
-14.3124
-14.5447
-14.9301
-15.282
-15.5084
-15.6089
-15.0653
-13.8011
-12.5406
-11.3593
-11.8029
-12.3994
-13.0484
-13.6229
-14.1671
-14.1286
-13.5027
-12.856
-12.1346
-11.4722
-10.947
-11.9626
-13.0319
-14.0549
-14.3801
-14.037
-13.552
-13.1399
-14.6033
-16.2179
-17.9972
-19.6162
-21.2055
-21.7522
-21.2807
-20.579
-19.9896
-22.3966
-25.0191
-27.882
-30.4454
-32.9165
-33.683
-32.774
-31.4612
-30.2645
-33.7685
-37.5397
-41.5612
-45.0419
-48.2551
-48.8711
-46.8747
-44.2496
-41.6305
-45.5679
-49.5111
-53.0338
-54.7127
-55.359
-46.7017
-50.2396
-46.4764
-29.5252
-44.192
-49.3845
-53.949
-56.6436
-61.8661
-60.5396
-50.8908
-45.9921
-38.571
-33.0579
-20.9342
-30.6114
-34.0889
-37.8224
-37.1154
-31.1594
-28.0975
-23.4475
-20.0456
-12.7073
-18.23
-20.1234
-22.0051
-21.3581
-17.3804
-14.7268
-9.17145
-12.7846
-13.951
-14.8332
-15.3703
-16.524
-16.013
-13.1505
-11.2432
-7.19263
-10.2389
-11.3771
-12.5647
-13.3661
-15.0521
-15.0179
-13.2189
-12.3572
-11.0865
-9.92251
-6.90002
-10.651
-12.3427
-14.7573
-15.0193
-13.4484
-12.0688
-8.34278
-12.8732
-14.9323
-17.6887
-19.5113
-23.0727
-23.4529
-21.0643
-18.917
-13.0247
-20.3861
-23.7321
-28.2128
-31.1256
-36.7587
-37.297
-33.3298
-29.7833
-20.1805
-31.6036
-36.6262
-43.0929
-47.1833
-55.0017
-55.3861
-48.7097
-43.0363
-28.3698
-43.8965
-50.0225
-56.7714
-57.0795
-50.4222
-52.0316
-53.013
-53.9304
-54.7794
-55.5569
-56.2607
-56.8901
-57.4449
-57.926
-58.3344
-58.6717
-58.9393
-59.1386
-59.2708
-59.3367
-52.0894
-53.076
-53.9977
-54.8499
-55.6293
-56.3341
-56.9634
-57.5175
-57.9973
-58.4043
-58.74
-59.0062
-59.2043
-59.3357
-59.4012
-52.2056
-53.2031
-54.1335
-54.992
-55.7754
-56.4817
-57.1107
-57.663
-58.1402
-58.544
-58.8765
-59.1398
-59.3355
-59.4652
-59.5298
-52.3818
-53.3963
-54.3402
-55.2083
-55.9972
-56.7055
-57.3334
-57.8825
-58.3551
-58.7537
-59.081
-59.3395
-59.5314
-59.6584
-59.7216
-52.6204
-53.6589
-54.6217
-55.5027
-56.2985
-57.0085
-57.6338
-58.1774
-58.6426
-59.0332
-59.3528
-59.6045
-59.7908
-59.914
-59.9752
-52.925
-53.9962
-54.9841
-55.8812
-56.6846
-57.3948
-58.0148
-58.5493
-59.0035
-59.3826
-59.6912
-59.9333
-60.1121
-60.23
-60.2886
-53.301
-54.416
-55.436
-56.3524
-57.1629
-57.8702
-58.4802
-59.0003
-59.4383
-59.8011
-60.0947
-60.324
-60.4929
-60.6039
-60.659
-53.7564
-54.9298
-55.9906
-56.9284
-57.743
-58.4415
-59.0342
-59.5324
-59.947
-60.2874
-60.5611
-60.7738
-60.9299
-61.0324
-61.0831
-54.3029
-55.5551
-56.6669
-57.6263
-58.4381
-59.1172
-59.6811
-60.1467
-60.5289
-60.8393
-61.0872
-61.2789
-61.4191
-61.5109
-61.5564
-54.9588
-56.3198
-57.4942
-58.4703
-59.2648
-59.9064
-60.4244
-60.8429
-61.181
-61.4526
-61.668
-61.834
-61.9551
-62.0344
-62.0736
-55.7522
-57.2699
-58.5183
-59.4947
-60.2432
-60.8181
-61.2654
-61.6178
-61.8978
-62.1209
-62.297
-62.4326
-62.5315
-62.5963
-62.6284
-56.7257
-58.4884
-59.8135
-60.7453
-61.3941
-61.8567
-62.1998
-62.4631
-62.67
-62.8347
-62.9652
-63.0663
-63.1405
-63.1894
-63.2137
-57.951
-60.1429
-61.5007
-62.2769
-62.7293
-63.0139
-63.2124
-63.3627
-63.4828
-63.5811
-63.6614
-63.7253
-63.7734
-63.8055
-63.8216
-59.6464
-62.6297
-63.7681
-64.1309
-64.2303
-64.2563
-64.2713
-64.2907
-64.3156
-64.3439
-64.3725
-64.3988
-64.4205
-64.4359
-64.4439
-63.1189
-66.9601
-66.8099
-66.2459
-65.803
-65.5089
-65.324
-65.2108
-65.1432
-65.1047
-65.0845
-65.0754
-65.0724
-65.072
-65.0723
-64.4816
-64.4814
-64.4818
-64.4848
-64.4934
-64.5126
-64.5501
-64.6182
-64.737
-64.9427
-65.3054
-65.9829
-67.4149
-71.1809
-84.3957
-65.0314
-65.0367
-65.0483
-65.0687
-65.1017
-65.1534
-65.2333
-65.3565
-65.548
-65.8511
-66.3455
-67.1846
-68.6644
-71.2301
-74.2098
-65.5763
-65.5863
-65.6076
-65.6428
-65.6959
-65.7734
-65.8852
-66.0461
-66.28
-66.6253
-67.1451
-67.9405
-69.1579
-70.9902
-74.0605
-66.1128
-66.1269
-66.1562
-66.2032
-66.2719
-66.3685
-66.5016
-66.6837
-66.9331
-67.2769
-67.7524
-68.4019
-69.2231
-69.8891
-68.1118
-66.6384
-66.6556
-66.6911
-66.7473
-66.8276
-66.9371
-67.0826
-67.2729
-67.5192
-67.8357
-68.2378
-68.7426
-69.3945
-70.4833
-73.9946
-67.1506
-67.1703
-67.2106
-67.2734
-67.3617
-67.4795
-67.6311
-67.8216
-68.0551
-68.3337
-68.6507
-68.9797
-69.2611
-69.3934
-69.2876
-67.6479
-67.6693
-67.713
-67.7806
-67.8744
-67.997
-68.1512
-68.3386
-68.5584
-68.8039
-69.0538
-69.2484
-69.2298
-68.4673
-64.5266
-68.1288
-68.1516
-68.1977
-68.2685
-68.3657
-68.4913
-68.6465
-68.8313
-69.0423
-69.2704
-69.4935
-69.6635
-69.714
-69.7466
-71.7414
-68.5926
-68.6162
-68.6639
-68.7369
-68.8363
-68.9637
-69.1198
-69.3038
-69.5127
-69.7395
-69.9683
-70.1598
-70.2093
-69.6616
-65.6685
-69.0385
-69.0626
-69.1114
-69.1856
-69.2863
-69.4149
-69.5718
-69.757
-69.9692
-70.2066
-70.4674
-70.7531
-71.1181
-71.9674
-76.1305
-69.4662
-69.4906
-69.5398
-69.6146
-69.7159
-69.845
-70.0026
-70.1894
-70.4064
-70.6566
-70.9474
-71.2896
-71.6892
-71.9699
-70.217
-69.8754
-69.8999
-69.9492
-70.0239
-70.1252
-70.2539
-70.4114
-70.5988
-70.8187
-71.0777
-71.3901
-71.7844
-72.3417
-73.3828
-76.8115
-70.2661
-70.2905
-70.3394
-70.4137
-70.514
-70.6417
-70.7977
-70.9835
-71.2022
-71.4609
-71.7741
-72.1641
-72.657
-73.1355
-72.1043
-70.6384
-70.6624
-70.7108
-70.784
-70.8829
-71.0083
-71.1614
-71.3433
-71.5561
-71.8054
-72.1029
-72.4706
-72.9808
-73.9346
-76.9166
-70.9925
-71.016
-71.0635
-71.1352
-71.232
-71.3545
-71.5035
-71.6794
-71.8829
-72.1159
-72.381
-72.6761
-72.9954
-73.3231
-73.6076
-71.3285
-71.3516
-71.3979
-71.4678
-71.562
-71.681
-71.8251
-71.9941
-72.1873
-72.4032
-72.6366
-72.8628
-73.0028
-72.7398
-70.5181
-71.647
-71.6694
-71.7144
-71.7823
-71.8735
-71.9886
-72.1276
-72.2898
-72.474
-72.6778
-72.8954
-73.1076
-73.2886
-73.5147
-74.9866
-71.9484
-71.9701
-72.0136
-72.0792
-72.1674
-72.2783
-72.4121
-72.5681
-72.7451
-72.9421
-73.156
-73.372
-73.5419
-73.4225
-71.4206
-72.2331
-72.254
-72.2959
-72.3592
-72.4441
-72.5508
-72.6795
-72.8295
-73.0006
-73.1939
-73.4134
-73.6664
-73.9947
-74.6356
-77.1319
-72.5016
-72.5217
-72.5621
-72.6229
-72.7043
-72.8068
-72.9301
-73.074
-73.2387
-73.4268
-73.6457
-73.9066
-74.2291
-74.5584
-73.9538
-72.7546
-72.7739
-72.8126
-72.8708
-72.9488
-73.0468
-73.1646
-73.3019
-73.4587
-73.6377
-73.8469
-74.1019
-74.4575
-75.1277
-77.1673
-72.9925
-73.0109
-73.048
-73.1037
-73.1783
-73.2717
-73.3838
-73.5138
-73.6612
-73.827
-74.0145
-74.2255
-74.4662
-74.7439
-75.0308
-73.2159
-73.2336
-73.2689
-73.3222
-73.3933
-73.4823
-73.5887
-73.7115
-73.8491
-74.0005
-74.1638
-74.3264
-74.4479
-74.3516
-73.116
-73.4254
-73.4423
-73.4761
-73.5268
-73.5947
-73.6794
-73.7805
-73.8965
-74.0254
-74.1651
-74.3119
-74.4539
-74.5797
-74.7486
-75.6882
-73.6215
-73.6376
-73.6699
-73.7183
-73.783
-73.8638
-73.96
-74.0702
-74.1923
-74.324
-74.4614
-74.5906
-74.6803
-74.6083
-73.6129
-73.8048
-73.8202
-73.851
-73.8972
-73.9589
-74.0361
-74.128
-74.2335
-74.3507
-74.4783
-74.6146
-74.7527
-74.892
-75.1072
-76.107
-73.9758
-73.9905
-74.0198
-74.0639
-74.1229
-74.1967
-74.2848
-74.3862
-74.5
-74.6259
-74.7649
-74.912
-75.0497
-75.0592
-74.0799
-74.135
-74.1489
-74.1769
-74.219
-74.2753
-74.3459
-74.4304
-74.5282
-74.6389
-74.7638
-74.9075
-75.0758
-75.2951
-75.6961
-77.0936
-74.2827
-74.296
-74.3227
-74.3629
-74.4166
-74.4841
-74.565
-74.6589
-74.7659
-74.8881
-75.0313
-75.2023
-75.4132
-75.6389
-75.4019
-74.4196
-74.4323
-74.4577
-74.4959
-74.5472
-74.6115
-74.6887
-74.7783
-74.8804
-74.9971
-75.1339
-75.299
-75.5199
-75.9011
-76.9544
-74.546
-74.558
-74.5822
-74.6186
-74.6674
-74.7286
-74.8019
-74.8868
-74.9829
-75.0913
-75.2152
-75.355
-75.5139
-75.6946
-75.8745
-74.6623
-74.6738
-74.6968
-74.7314
-74.7777
-74.8358
-74.9053
-74.9853
-75.075
-75.1742
-75.2834
-75.3958
-75.4917
-75.4866
-74.9419
-74.769
-74.7799
-74.8018
-74.8347
-74.8787
-74.9338
-74.9995
-75.0748
-75.1584
-75.2496
-75.3477
-75.446
-75.5385
-75.6514
-76.1139
-74.8665
-74.8768
-74.8976
-74.9289
-74.9707
-75.023
-75.0852
-75.1562
-75.2347
-75.3196
-75.4099
-75.4982
-75.57
-75.5716
-75.1687
-74.955
-74.9649
-74.9847
-75.0144
-75.0542
-75.1038
-75.1629
-75.2303
-75.3046
-75.3851
-75.4718
-75.56
-75.6489
-75.7707
-76.2269
-75.0351
-75.0445
-75.0633
-75.0917
-75.1295
-75.1768
-75.2331
-75.2973
-75.3682
-75.4458
-75.5307
-75.6194
-75.7038
-75.7358
-75.3633
-75.107
-75.1159
-75.1339
-75.1609
-75.197
-75.2422
-75.2959
-75.3573
-75.4254
-75.5007
-75.5853
-75.6799
-75.794
-75.9798
-76.561
-75.1709
-75.1795
-75.1967
-75.2225
-75.2571
-75.3002
-75.3516
-75.4104
-75.4757
-75.5484
-75.6311
-75.7248
-75.8333
-75.9472
-75.8867
-75.2273
-75.2355
-75.252
-75.2767
-75.3098
-75.3512
-75.4004
-75.4566
-75.5191
-75.5885
-75.6676
-75.7576
-75.8676
-76.034
-76.4355
-75.2763
-75.2842
-75.3
-75.3238
-75.3556
-75.3953
-75.4425
-75.4963
-75.5557
-75.6212
-75.6946
-75.7746
-75.8616
-75.9555
-76.0422
-75.3181
-75.3257
-75.341
-75.364
-75.3946
-75.4329
-75.4782
-75.5297
-75.5863
-75.6478
-75.7153
-75.7849
-75.8495
-75.8802
-75.731
-75.353
-75.3603
-75.3752
-75.3974
-75.4271
-75.4641
-75.5079
-75.5574
-75.6115
-75.6697
-75.7328
-75.7969
-75.8596
-75.9281
-76.097
-75.381
-75.3882
-75.4027
-75.4244
-75.4533
-75.4893
-75.5318
-75.5798
-75.6318
-75.6876
-75.7476
-75.808
-75.8645
-75.9043
-75.8436
-75.4024
-75.4095
-75.4237
-75.4449
-75.4733
-75.5086
-75.5502
-75.597
-75.6477
-75.702
-75.7604
-75.8199
-75.8799
-75.9484
-76.0897
-75.4173
-75.4243
-75.4382
-75.4593
-75.4873
-75.5221
-75.5631
-75.6093
-75.6593
-75.7128
-75.7706
-75.8297
-75.8882
-75.9401
-75.9362
-75.4256
-75.4325
-75.4465
-75.4674
-75.4952
-75.5299
-75.5708
-75.6167
-75.6666
-75.72
-75.778
-75.838
-75.8998
-75.9687
-76.0757
-75.4274
-75.4344
-75.4483
-75.4693
-75.4972
-75.532
-75.573
-75.6192
-75.6694
-75.7235
-75.7823
-75.8433
-75.9053
-75.9689
-76.0377
-75.4227
-75.4298
-75.4439
-75.465
-75.4932
-75.5284
-75.5699
-75.6167
-75.6677
-75.7229
-75.7833
-75.846
-75.9085
-75.9638
-75.9783
-75.4115
-75.4187
-75.433
-75.4545
-75.4832
-75.519
-75.5612
-75.6091
-75.6613
-75.7181
-75.7808
-75.847
-75.9157
-75.985
-76.0421
-75.3937
-75.401
-75.4156
-75.4377
-75.467
-75.5036
-75.547
-75.5961
-75.6499
-75.7087
-75.774
-75.8444
-75.9212
-76.0128
-76.1676
-75.3691
-75.3766
-75.3917
-75.4144
-75.4446
-75.4823
-75.5269
-75.5775
-75.6331
-75.694
-75.7619
-75.8356
-75.9152
-75.9948
-76.002
-75.3376
-75.3454
-75.361
-75.3844
-75.4157
-75.4547
-75.5009
-75.5533
-75.6109
-75.6738
-75.744
-75.8207
-75.908
-76.0254
-76.2838
-75.299
-75.3071
-75.3233
-75.3477
-75.3803
-75.4208
-75.4688
-75.5233
-75.583
-75.648
-75.7198
-75.7967
-75.8788
-75.9563
-75.9019
-75.2531
-75.2616
-75.2785
-75.304
-75.338
-75.3803
-75.4304
-75.4873
-75.5495
-75.6169
-75.6901
-75.7671
-75.8515
-75.9769
-76.3693
-75.1998
-75.2086
-75.2264
-75.253
-75.2886
-75.333
-75.3856
-75.4453
-75.5107
-75.581
-75.6561
-75.7305
-75.7945
-75.8102
-75.5325
-75.1385
-75.1478
-75.1665
-75.1945
-75.2319
-75.2786
-75.334
-75.3971
-75.4664
-75.5412
-75.6208
-75.6991
-75.77
-75.8454
-76.1238
-75.0692
-75.079
-75.0986
-75.128
-75.1675
-75.2167
-75.2754
-75.3424
-75.4166
-75.4974
-75.5845
-75.671
-75.7412
-75.7377
-75.3819
-74.9914
-75.0017
-75.0223
-75.0534
-75.0949
-75.1469
-75.2091
-75.2805
-75.3602
-75.4486
-75.5468
-75.6523
-75.7625
-75.8728
-75.9637
-74.9048
-74.9156
-74.9374
-74.9701
-75.0138
-75.0688
-75.1345
-75.2104
-75.296
-75.3922
-75.5023
-75.6283
-75.7825
-76.0194
-76.6309
-74.809
-74.8204
-74.8433
-74.8777
-74.9238
-74.9817
-75.0511
-75.1314
-75.2225
-75.3256
-75.4449
-75.5829
-75.7439
-75.904
-75.7612
-74.7036
-74.7156
-74.7396
-74.7758
-74.8243
-74.8852
-74.9582
-75.0428
-75.1386
-75.2472
-75.3727
-75.5195
-75.7047
-75.997
-76.7985
-74.5883
-74.6008
-74.6261
-74.6641
-74.715
-74.7789
-74.8554
-74.9441
-75.044
-75.1563
-75.2838
-75.4276
-75.5898
-75.7345
-75.4386
-74.4625
-74.4757
-74.5021
-74.542
-74.5954
-74.6623
-74.7425
-74.8351
-74.939
-75.0542
-75.1817
-75.3211
-75.4859
-75.7761
-76.8717
-74.3258
-74.3397
-74.3674
-74.4091
-74.465
-74.5352
-74.6192
-74.7161
-74.8243
-74.9428
-75.0696
-75.1948
-75.2938
-75.2565
-74.3756
-74.178
-74.1924
-74.2214
-74.2651
-74.3236
-74.3971
-74.4851
-74.5868
-74.7006
-74.8249
-74.9567
-75.0848
-75.1951
-75.3206
-76.0027
-74.0184
-74.0334
-74.0637
-74.1093
-74.1705
-74.2474
-74.3398
-74.4469
-74.5676
-74.701
-74.8447
-74.9852
-75.0847
-74.9963
-74.0046
-73.8466
-73.8623
-73.8939
-73.9414
-74.0052
-74.0855
-74.1824
-74.2953
-74.424
-74.5693
-74.7329
-74.9122
-75.1034
-75.2973
-75.4619
-73.6623
-73.6786
-73.7114
-73.7608
-73.8272
-73.9108
-74.0119
-74.1304
-74.2669
-74.4241
-74.6084
-74.8291
-75.1189
-75.6166
-77.0561
-73.465
-73.4819
-73.5159
-73.5671
-73.6359
-73.7226
-73.8275
-73.9508
-74.0935
-74.2594
-74.4568
-74.6958
-74.9889
-75.2799
-74.8528
-73.2542
-73.2718
-73.3069
-73.3598
-73.4309
-73.5204
-73.6285
-73.7554
-73.902
-74.072
-74.2745
-74.5231
-74.8589
-75.44
-77.1953
-73.0297
-73.0478
-73.084
-73.1386
-73.2118
-73.3039
-73.4147
-73.5441
-73.6922
-73.8616
-74.0581
-74.288
-74.5572
-74.7828
-74.0131
-72.7909
-72.8095
-72.8469
-72.9032
-72.9785
-73.0729
-73.1861
-73.3174
-73.4658
-73.6316
-73.8166
-74.0236
-74.2845
-74.8147
-77.0854
-72.5375
-72.5567
-72.5952
-72.6531
-72.7305
-72.8274
-72.9432
-73.0765
-73.2255
-73.3875
-73.5581
-73.7198
-73.8234
-73.6359
-71.6568
-72.2691
-72.2889
-72.3286
-72.3882
-72.4679
-72.5674
-72.6862
-72.8226
-72.974
-73.1368
-73.3038
-73.4545
-73.563
-73.6994
-74.9767
-71.9854
-72.0058
-72.0467
-72.1081
-72.1901
-72.2927
-72.4151
-72.5559
-72.7127
-72.8826
-73.0588
-73.2164
-73.282
-72.9687
-70.8644
-71.6858
-71.7068
-71.749
-71.8123
-71.8969
-72.0028
-72.1294
-72.2758
-72.4405
-72.6234
-72.8249
-73.0402
-73.2628
-73.4796
-73.6551
-71.37
-71.3917
-71.4351
-71.5004
-71.5878
-71.6972
-71.8283
-71.9805
-72.1537
-72.3506
-72.5794
-72.857
-73.2462
-74.0173
-76.5901
-71.0375
-71.0598
-71.1046
-71.1719
-71.2621
-71.3751
-71.5107
-71.6684
-71.8486
-72.0551
-72.2982
-72.5942
-72.9633
-73.3018
-72.2978
-70.6879
-70.7109
-70.7569
-70.8263
-70.9193
-71.0359
-71.1759
-71.3385
-71.5233
-71.7334
-71.9784
-72.2786
-72.7002
-73.5166
-76.3668
-70.3208
-70.3444
-70.3917
-70.463
-70.5589
-70.6793
-70.8237
-70.9908
-71.1787
-71.3869
-71.6183
-71.8767
-72.1617
-72.317
-70.7096
-69.9358
-69.9598
-70.0083
-70.0815
-70.1802
-70.3046
-70.454
-70.6264
-70.818
-71.0236
-71.2377
-71.4545
-71.7119
-72.3393
-75.6858
-69.5325
-69.5569
-69.6062
-69.6811
-69.7825
-69.9111
-70.0666
-70.2466
-70.4456
-70.6539
-70.8532
-71.0022
-71.0039
-70.4715
-67.0505
-69.1107
-69.1353
-69.185
-69.261
-69.3648
-69.4978
-69.6605
-69.8513
-70.0649
-70.2898
-70.5018
-70.6503
-70.6656
-70.6076
-72.018
-68.6703
-68.6947
-68.7442
-68.8204
-68.9257
-69.0625
-69.233
-69.438
-69.6746
-69.9341
-70.1928
-70.3889
-70.3771
-69.7221
-66.5431
-68.2115
-68.2352
-68.2835
-68.3585
-68.4635
-68.6025
-68.7801
-69.0004
-69.2666
-69.5784
-69.9254
-70.27
-70.534
-70.5875
-70.3242
-67.7349
-67.7571
-67.8028
-67.8746
-67.9767
-68.1146
-68.2957
-68.5289
-68.8253
-69.1978
-69.658
-70.2054
-70.8358
-71.6709
-73.9431
-67.2414
-67.2613
-67.3027
-67.3686
-67.4638
-67.5954
-67.7734
-68.0114
-68.3293
-68.7556
-69.3284
-70.0811
-70.9944
-71.7544
-70.6125
-66.7325
-66.7493
-66.7844
-66.8411
-66.9246
-67.0429
-67.2077
-67.4365
-67.7562
-68.2112
-68.8723
-69.8436
-71.2581
-73.1568
-75.0566
-66.2106
-66.2232
-66.2499
-66.2937
-66.3601
-66.4568
-66.5961
-66.7963
-67.0877
-67.5232
-68.199
-69.2964
-71.1846
-74.5565
-79.8438
-65.6786
-65.686
-65.7021
-65.7297
-65.7734
-65.8401
-65.9405
-66.0908
-66.3175
-66.6678
-67.2315
-68.1984
-70.0795
-74.6241
-89.3178
-89.3185
-74.5868
-69.9764
-68.0712
-67.1066
-66.5563
-66.2217
-66.0102
-65.8732
-65.7838
-65.7257
-65.6887
-65.6659
-65.6529
-65.6471
-80.4036
-74.4899
-70.9754
-69.0755
-68.0027
-67.3581
-66.951
-66.6834
-66.5024
-66.3782
-66.293
-66.2353
-66.1975
-66.1748
-66.1641
-74.5356
-72.7257
-70.8519
-69.5037
-68.5999
-67.9944
-67.582
-67.2946
-67.0906
-66.9445
-66.8402
-66.767
-66.7175
-66.687
-66.6725
-71.0207
-71.0045
-70.3621
-69.6215
-68.9887
-68.496
-68.1246
-67.8461
-67.637
-67.4805
-67.3647
-67.281
-67.2232
-67.1869
-67.1694
-67.536
-69.7169
-69.9394
-69.6625
-69.2787
-68.9127
-68.6013
-68.3476
-68.1453
-67.987
-67.8659
-67.776
-67.7127
-67.6724
-67.6528
-70.6053
-69.7878
-69.8623
-69.7758
-69.5548
-69.2909
-69.0364
-68.8114
-68.6214
-68.4665
-68.3442
-68.2515
-68.185
-68.1421
-68.1212
-66.2124
-69.2379
-69.8958
-69.9804
-69.8593
-69.6619
-69.4494
-69.2488
-69.0715
-68.922
-68.8011
-68.7075
-68.6396
-68.5953
-68.5736
-72.0301
-70.3306
-70.3262
-70.326
-70.2152
-70.0428
-69.8527
-69.668
-69.5006
-69.3564
-69.2377
-69.1447
-69.0763
-69.0316
-69.0094
-66.7565
-70.2447
-70.7523
-70.7465
-70.6121
-70.4354
-70.2505
-70.0731
-69.9118
-69.7718
-69.6555