/*--------------------------------*- C++ -*----------------------------------*\
| =========                 |                                                 |
| \\      /  F ield         | OpenFOAM: The Open Source CFD Toolbox           |
|  \\    /   O peration     | Version:  5.x                                   |
|   \\  /    A nd           | Web:      www.OpenFOAM.org                      |
|    \\/     M anipulation  |                                                 |
\*---------------------------------------------------------------------------*/
FoamFile
{
    version     2.0;
    format      ascii;
    class       volScalarField;
    location    "0.9";
    object      T;
}
// * * * * * * * * * * * * * * * * * * * * * * * * * * * * * * * * * * * * * //

dimensions      [0 0 0 1 0 0 0];

internalField   nonuniform List<scalar> 
6300
(
322.709
322.128
321.548
320.969
320.393
319.82
319.25
318.684
318.123
317.568
317.019
316.476
315.942
315.415
314.896
322.709
322.127
321.547
320.967
320.39
319.816
319.246
318.679
318.118
317.562
317.012
316.469
315.934
315.406
314.888
322.708
322.125
321.543
320.963
320.385
319.809
319.237
318.67
318.107
317.55
316.999
316.455
315.918
315.389
314.87
322.707
322.123
321.539
320.956
320.376
319.799
319.225
318.655
318.091
317.531
316.979
316.433
315.894
315.364
314.843
322.706
322.119
321.533
320.948
320.365
319.785
319.209
318.636
318.069
317.507
316.952
316.403
315.862
315.33
314.807
322.705
322.114
321.525
320.937
320.351
319.768
319.188
318.613
318.042
317.476
316.918
316.366
315.822
315.287
314.761
322.703
322.109
321.516
320.924
320.335
319.747
319.164
318.584
318.009
317.44
316.877
316.321
315.773
315.235
314.706
322.701
322.103
321.505
320.909
320.315
319.724
319.135
318.551
317.971
317.396
316.828
316.268
315.716
315.173
314.641
322.698
322.096
321.494
320.893
320.294
319.697
319.103
318.513
317.927
317.347
316.773
316.207
315.649
315.101
314.565
322.696
322.088
321.481
320.874
320.27
319.667
319.068
318.471
317.879
317.291
316.71
316.137
315.572
315.018
314.477
322.693
322.08
321.467
320.855
320.244
319.635
319.029
318.425
317.825
317.23
316.64
316.058
315.484
314.923
314.376
322.69
322.071
321.452
320.833
320.216
319.601
318.987
318.375
317.767
317.162
316.562
315.969
315.385
314.814
314.259
322.687
322.061
321.436
320.811
320.187
319.564
318.943
318.323
317.705
317.09
316.479
315.872
315.274
314.687
314.121
322.684
322.052
321.42
320.788
320.157
319.527
318.897
318.268
317.641
317.015
316.39
315.768
315.15
314.541
313.954
322.681
322.042
321.403
320.765
320.127
319.488
318.851
318.213
317.575
316.937
316.299
315.659
315.017
314.374
313.739
314.43
314.012
313.601
313.197
312.801
312.412
312.031
311.657
311.292
310.936
310.587
310.248
309.917
309.595
309.281
308.977
308.682
308.395
308.118
307.849
307.588
307.336
307.092
306.855
306.627
306.405
306.191
305.983
305.782
305.587
305.397
305.213
305.033
304.858
304.687
304.52
304.357
304.196
304.039
303.883
303.73
303.578
303.428
303.278
303.129
302.981
302.832
302.683
302.533
302.382
302.229
302.074
301.917
301.758
301.595
301.429
301.259
301.085
300.907
300.723
300.535
300.341
300.14
299.934
299.721
299.501
299.274
299.04
298.798
298.548
298.29
298.024
297.749
297.466
297.174
296.873
296.563
296.244
295.916
295.579
295.233
294.878
294.515
294.142
293.761
293.371
292.973
292.566
292.152
291.73
314.42
314.002
313.591
313.187
312.79
312.401
312.019
311.646
311.281
310.924
310.575
310.235
309.904
309.582
309.269
308.965
308.669
308.383
308.105
307.837
307.576
307.324
307.081
306.845
306.616
306.396
306.182
305.974
305.774
305.579
305.39
305.206
305.027
304.852
304.682
304.515
304.352
304.192
304.035
303.88
303.728
303.576
303.426
303.277
303.129
302.981
302.833
302.684
302.535
302.384
302.232
302.078
301.921
301.762
301.6
301.435
301.265
301.092
300.914
300.731
300.543
300.349
300.149
299.943
299.731
299.511
299.285
299.051
298.809
298.56
298.302
298.036
297.762
297.478
297.186
296.886
296.576
296.257
295.929
295.592
295.246
294.891
294.527
294.154
293.773
293.383
292.984
292.577
292.163
291.74
314.402
313.983
313.571
313.166
312.769
312.379
311.997
311.623
311.257
310.9
310.551
310.21
309.879
309.557
309.243
308.939
308.644
308.358
308.081
307.812
307.553
307.301
307.058
306.823
306.596
306.376
306.163
305.956
305.757
305.563
305.375
305.192
305.014
304.84
304.671
304.506
304.344
304.185
304.029
303.875
303.723
303.573
303.424
303.276
303.128
302.981
302.834
302.686
302.538
302.388
302.237
302.084
301.929
301.771
301.61
301.445
301.277
301.105
300.928
300.746
300.559
300.366
300.167
299.962
299.75
299.532
299.306
299.073
298.832
298.583
298.326
298.06
297.786
297.503
297.211
296.911
296.601
296.282
295.955
295.618
295.271
294.916
294.552
294.179
293.797
293.406
293.007
292.6
292.185
291.761
314.374
313.954
313.541
313.135
312.737
312.346
311.963
311.588
311.222
310.863
310.514
310.173
309.841
309.519
309.205
308.901
308.606
308.32
308.044
307.776
307.517
307.267
307.025
306.791
306.564
306.346
306.134
305.929
305.731
305.539
305.352
305.171
304.995
304.823
304.655
304.491
304.331
304.173
304.019
303.866
303.716
303.567
303.42
303.273
303.127
302.982
302.836
302.69
302.543
302.395
302.245
302.094
301.94
301.784
301.624
301.461
301.295
301.124
300.948
300.768
300.582
300.391
300.194
299.99
299.779
299.562
299.337
299.105
298.865
298.617
298.361
298.096
297.823
297.54
297.249
296.949
296.64
296.321
295.993
295.656
295.31
294.954
294.59
294.216
293.833
293.442
293.042
292.634
292.217
291.793
314.336
313.915
313.501
313.094
312.694
312.302
311.918
311.542
311.174
310.815
310.464
310.123
309.79
309.467
309.154
308.85
308.555
308.27
307.994
307.727
307.469
307.22
306.979
306.747
306.523
306.306
306.096
305.893
305.697
305.507
305.322
305.143
304.969
304.799
304.633
304.472
304.313
304.158
304.005
303.855
303.707
303.56
303.414
303.27
303.126
302.982
302.838
302.694
302.549
302.403
302.256
302.107
301.955
301.801
301.643
301.483
301.318
301.15
300.976
300.798
300.614
300.425
300.229
300.027
299.819
299.603
299.38
299.149
298.91
298.664
298.408
298.145
297.872
297.59
297.3
297
296.691
296.373
296.045
295.708
295.361
295.005
294.64
294.266
293.882
293.49
293.089
292.68
292.262
291.835
314.288
313.866
313.45
313.042
312.641
312.247
311.862
311.484
311.115
310.754
310.402
310.059
309.726
309.403
309.089
308.785
308.491
308.206
307.931
307.666
307.409
307.161
306.923
306.692
306.47
306.255
306.048
305.848
305.654
305.467
305.285
305.108
304.937
304.77
304.607
304.447
304.291
304.139
303.989
303.841
303.695
303.551
303.408
303.266
303.124
302.983
302.842
302.7
302.558
302.414
302.269
302.123
301.974
301.822
301.668
301.51
301.348
301.182
301.011
300.835
300.654
300.467
300.274
300.074
299.868
299.654
299.433
299.204
298.967
298.722
298.468
298.205
297.934
297.653
297.364
297.064
296.756
296.438
296.11
295.772
295.425
295.069
294.703
294.328
293.944
293.551
293.148
292.737
292.317
291.889
314.231
313.806
313.389
312.979
312.577
312.182
311.794
311.415
311.043
310.68
310.327
309.983
309.649
309.325
309.011
308.707
308.413
308.129
307.855
307.591
307.336
307.09
306.854
306.626
306.407
306.195
305.991
305.793
305.603
305.418
305.24
305.066
304.898
304.734
304.574
304.418
304.265
304.116
303.969
303.824
303.681
303.54
303.4
303.26
303.122
302.984
302.845
302.706
302.567
302.427
302.285
302.142
301.996
301.848
301.697
301.542
301.384
301.221
301.053
300.88
300.702
300.518
300.328
300.131
299.927
299.716
299.497
299.27
299.035
298.792
298.54
298.279
298.009
297.729
297.44
297.142
296.834
296.516
296.188
295.851
295.503
295.146
294.779
294.403
294.018
293.624
293.22
292.807
292.385
291.954
314.163
313.737
313.318
312.906
312.502
312.105
311.715
311.333
310.959
310.594
310.238
309.892
309.557
309.232
308.918
308.614
308.321
308.038
307.766
307.503
307.25
307.007
306.773
306.548
306.332
306.124
305.923
305.729
305.543
305.362
305.187
305.018
304.853
304.693
304.537
304.384
304.235
304.089
303.945
303.804
303.665
303.527
303.39
303.255
303.119
302.984
302.849
302.714
302.578
302.442
302.304
302.164
302.022
301.878
301.731
301.58
301.425
301.266
301.102
300.933
300.759
300.578
300.391
300.197
299.996
299.788
299.572
299.348
299.116
298.875
298.625
298.365
298.096
297.818
297.531
297.233
296.926
296.609
296.281
295.943
295.595
295.237
294.869
294.492
294.106
293.71
293.304
292.889
292.465
292.031
314.084
313.656
313.235
312.823
312.417
312.018
311.626
311.241
310.863
310.494
310.135
309.787
309.449
309.124
308.81
308.507
308.215
307.933
307.662
307.401
307.15
306.91
306.679
306.458
306.246
306.042
305.845
305.656
305.473
305.297
305.127
304.962
304.802
304.646
304.494
304.346
304.201
304.058
303.919
303.782
303.647
303.513
303.38
303.248
303.116
302.985
302.854
302.722
302.59
302.458
302.324
302.189
302.052
301.912
301.769
301.623
301.473
301.319
301.159
300.995
300.824
300.647
300.463
300.273
300.076
299.871
299.659
299.438
299.209
298.97
298.722
298.465
298.198
297.921
297.635
297.339
297.033
296.716
296.388
296.049
295.7
295.341
294.972
294.594
294.207
293.81
293.403
292.986
292.558
292.121
313.994
313.564
313.143
312.729
312.323
311.922
311.527
311.137
310.755
310.381
310.017
309.665
309.326
308.999
308.686
308.384
308.093
307.813
307.543
307.284
307.036
306.798
306.572
306.355
306.148
305.949
305.757
305.573
305.395
305.224
305.06
304.9
304.745
304.594
304.447
304.303
304.162
304.024
303.889
303.757
303.626
303.497
303.369
303.241
303.113
302.985
302.858
302.731
302.604
302.476
302.348
302.218
302.085
301.951
301.813
301.672
301.527
301.378
301.224
301.064
300.898
300.725
300.546
300.359
300.166
299.966
299.757
299.541
299.315
299.079
298.833
298.578
298.312
298.037
297.753
297.459
297.154
296.838
296.51
296.171
295.82
295.459
295.088
294.709
294.321
293.923
293.515
293.096
292.666
292.225
313.89
313.459
313.038
312.626
312.22
311.818
311.42
311.024
310.634
310.253
309.882
309.525
309.184
308.857
308.545
308.246
307.957
307.678
307.409
307.152
306.906
306.672
306.451
306.24
306.038
305.845
305.659
305.48
305.308
305.143
304.984
304.831
304.682
304.537
304.394
304.255
304.119
303.986
303.856
303.729
303.604
303.48
303.357
303.233
303.109
302.986
302.862
302.74
302.617
302.495
302.373
302.249
302.122
301.993
301.861
301.726
301.587
301.444
301.296
301.142
300.981
300.813
300.638
300.455
300.266
300.071
299.868
299.656
299.435
299.202
298.959
298.704
298.44
298.167
297.885
297.594
297.292
296.978
296.65
296.308
295.954
295.59
295.217
294.836
294.449
294.052
293.643
293.223
292.789
292.344
313.77
313.34
312.922
312.515
312.113
311.71
311.307
310.904
310.503
310.108
309.728
309.364
309.02
308.694
308.387
308.092
307.806
307.528
307.259
307.002
306.759
306.529
306.314
306.111
305.917
305.731
305.551
305.377
305.211
305.052
304.902
304.756
304.614
304.475
304.338
304.203
304.071
303.943
303.819
303.699
303.581
303.463
303.345
303.225
303.106
302.985
302.866
302.748
302.631
302.515
302.4
302.283
302.164
302.04
301.914
301.785
301.653
301.518
301.378
301.23
301.075
300.911
300.74
300.56
300.376
300.186
299.99
299.786
299.57
299.341
299.099
298.845
298.581
298.309
298.03
297.744
297.448
297.136
296.808
296.463
296.103
295.732
295.356
294.975
294.59
294.196
293.789
293.367
292.93
292.48
313.629
313.204
312.79
312.396
312.005
311.604
311.197
310.779
310.362
309.945
309.549
309.174
308.829
308.507
308.21
307.926
307.644
307.367
307.093
306.834
306.591
306.367
306.159
305.968
305.787
305.608
305.434
305.263
305.103
304.951
304.811
304.677
304.543
304.411
304.278
304.147
304.017
303.894
303.777
303.665
303.557
303.446
303.334
303.219
303.102
302.984
302.867
302.753
302.643
302.535
302.429
302.322
302.209
302.092
301.97
301.847
301.723
301.598
301.469
301.33
301.181
301.021
300.852
300.673
300.493
300.31
300.125
299.932
299.723
299.5
299.257
299.001
298.732
298.46
298.185
297.91
297.625
297.318
296.99
296.638
296.269
295.884
295.5
295.118
294.743
294.36
293.955
293.534
293.09
292.636
313.458
313.051
312.631
312.271
311.914
311.506
311.102
310.653
310.22
309.751
309.342
308.943
308.604
308.283
308.015
307.759
307.475
307.2
306.904
306.646
306.394
306.181
305.98
305.812
305.653
305.479
305.312
305.135
304.981
304.835
304.712
304.596
304.47
304.347
304.215
304.089
303.955
303.838
303.725
303.629
303.535
303.432
303.329
303.214
303.102
302.978
302.866
302.753
302.652
302.551
302.461
302.369
302.261
302.151
302.027
301.912
301.793
301.686
301.574
301.442
301.304
301.143
300.977
300.789
300.614
300.434
300.271
300.101
299.898
299.684
299.434
299.177
298.885
298.615
298.339
298.091
297.834
297.528
297.209
296.836
296.458
296.031
295.643
295.25
294.906
294.556
294.146
293.731
293.263
292.819
313.226
312.914
312.389
312.139
311.897
311.403
311.074
310.504
310.13
309.473
309.121
308.625
308.354
307.982
307.803
307.633
307.293
307.065
306.663
306.446
306.143
305.978
305.753
305.644
305.541
305.34
305.205
304.973
304.849
304.683
304.604
304.531
304.391
304.298
304.144
304.042
303.868
303.775
303.649
303.588
303.529
303.417
303.34
303.208
303.117
302.957
302.866
302.736
302.661
302.552
302.495
302.437
302.318
302.231
302.072
301.981
301.848
301.779
301.708
301.565
301.46
301.27
301.134
300.885
300.744
300.534
300.428
300.317
300.089
299.922
299.618
299.403
299.006
298.781
298.45
298.285
298.114
297.758
297.503
297.04
296.717
296.123
295.794
295.312
295.077
294.839
294.345
294.005
293.399
293.054
291.258
290.732
290.197
289.654
289.102
288.542
287.977
287.405
286.828
286.246
285.661
285.073
284.482
283.89
283.297
291.268
290.742
290.206
289.662
289.109
288.549
287.982
287.41
286.832
286.25
285.664
285.075
284.484
283.891
283.297
291.288
290.76
290.223
289.678
289.124
288.562
287.994
287.42
286.841
286.257
285.67
285.08
284.487
283.893
283.298
291.318
290.789
290.25
289.702
289.145
288.582
288.011
287.435
286.854
286.268
285.679
285.086
284.492
283.896
283.299
291.358
290.826
290.285
289.734
289.175
288.608
288.035
287.455
286.871
286.282
285.69
285.095
284.498
283.9
283.3
291.409
290.874
290.329
289.774
289.211
288.641
288.063
287.48
286.892
286.3
285.705
285.106
284.506
283.904
283.302
291.471
290.932
290.382
289.823
289.255
288.68
288.098
287.51
286.918
286.322
285.722
285.12
284.515
283.91
283.303
291.544
291
290.445
289.88
289.307
288.726
288.138
287.545
286.947
286.346
285.742
285.135
284.526
283.916
283.305
291.629
291.08
290.518
289.946
289.366
288.778
288.183
287.584
286.98
286.373
285.764
285.152
284.538
283.923
283.308
291.728
291.171
290.601
290.021
289.432
288.836
288.234
287.627
287.017
286.404
285.788
285.17
284.551
283.931
283.31
291.84
291.274
290.695
290.104
289.505
288.899
288.289
287.674
287.056
286.436
285.814
285.19
284.565
283.939
283.313
291.969
291.392
290.799
290.196
289.584
288.968
288.347
287.724
287.098
286.47
285.841
285.211
284.58
283.948
283.316
292.117
291.525
290.914
290.294
289.669
289.04
288.409
287.776
287.141
286.506
285.87
285.233
284.595
283.957
283.319
292.292
291.674
291.039
290.399
289.757
289.114
288.472
287.829
287.186
286.543
285.899
285.255
284.611
283.967
283.322
292.509
291.841
291.17
290.505
289.845
289.189
288.535
287.882
287.23
286.579
285.928
285.278
284.627
283.976
283.325
322.678
322.033
321.388
320.743
320.098
319.453
318.808
318.162
317.516
316.868
316.217
315.561
314.897
314.213
313.474
322.675
322.025
321.374
320.724
320.073
319.422
318.77
318.117
317.463
316.806
316.146
315.479
314.802
314.106
313.377
322.672
322.016
321.36
320.704
320.048
319.39
318.732
318.073
317.411
316.747
316.079
315.404
314.72
314.021
313.3
322.669
322.008
321.347
320.685
320.023
319.36
318.695
318.03
317.362
316.691
316.016
315.336
314.648
313.952
313.25
322.667
322
321.334
320.667
319.999
319.33
318.66
317.988
317.315
316.638
315.958
315.273
314.583
313.885
313.173
322.664
321.993
321.321
320.649
319.975
319.301
318.626
317.949
317.269
316.588
315.903
315.215
314.523
313.829
313.135
322.662
321.985
321.308
320.631
319.953
319.274
318.593
317.91
317.226
316.539
315.85
315.158
314.465
313.774
313.096
322.659
321.978
321.296
320.614
319.931
319.247
318.561
317.874
317.185
316.493
315.799
315.103
314.406
313.709
313.011
322.657
321.971
321.285
320.598
319.91
319.221
318.531
317.839
317.145
316.448
315.75
315.049
314.347
313.645
312.953
322.655
321.964
321.274
320.582
319.89
319.196
318.502
317.805
317.106
316.406
315.702
314.996
314.287
313.574
312.848
322.653
321.958
321.263
320.567
319.871
319.173
318.474
317.773
317.07
316.365
315.657
314.946
314.231
313.512
312.792
322.651
321.952
321.253
320.553
319.852
319.15
318.447
317.742
317.035
316.326
315.614
314.898
314.178
313.451
312.71
322.649
321.946
321.243
320.539
319.835
319.129
318.422
317.713
317.002
316.289
315.573
314.853
314.13
313.4
312.667
322.647
321.94
321.234
320.526
319.818
319.109
318.398
317.685
316.971
316.254
315.535
314.812
314.085
313.352
312.607
322.645
321.935
321.225
320.514
319.802
319.089
318.375
317.659
316.941
316.221
315.499
314.774
314.046
313.314
312.579
322.643
321.93
321.216
320.502
319.787
319.071
318.353
317.634
316.913
316.191
315.465
314.738
314.008
313.278
312.553
322.642
321.925
321.208
320.491
319.773
319.054
318.333
317.611
316.887
316.161
315.434
314.704
313.971
313.238
312.501
322.64
321.921
321.201
320.48
319.759
319.037
318.314
317.589
316.862
316.134
315.404
314.671
313.936
313.2
312.468
322.639
321.916
321.194
320.471
319.747
319.022
318.296
317.568
316.839
316.108
315.375
314.64
313.902
313.16
312.409
322.638
321.912
321.187
320.461
319.735
319.007
318.278
317.549
316.817
316.084
315.348
314.611
313.87
313.126
312.379
322.636
321.909
321.181
320.452
319.723
318.993
318.262
317.53
316.796
316.061
315.324
314.584
313.842
313.095
312.339
322.635
321.905
321.175
320.444
319.713
318.981
318.247
317.513
316.777
316.04
315.301
314.559
313.816
313.07
312.321
322.634
321.902
321.169
320.436
319.703
318.968
318.233
317.497
316.759
316.02
315.279
314.536
313.792
313.048
312.305
322.633
321.899
321.164
320.429
319.694
318.957
318.22
317.482
316.742
316.001
315.259
314.515
313.77
313.023
312.275
322.632
321.896
321.159
320.422
319.685
318.947
318.208
317.467
316.726
315.984
315.24
314.494
313.748
313.001
312.256
322.631
321.893
321.155
320.416
319.677
318.937
318.196
317.454
316.711
315.967
315.222
314.475
313.727
312.977
312.224
322.63
321.89
321.15
320.41
319.669
318.927
318.185
317.442
316.697
315.952
315.205
314.456
313.707
312.956
312.205
322.629
321.888
321.146
320.404
319.662
318.919
318.175
317.43
316.685
315.938
315.189
314.439
313.688
312.933
312.174
322.629
321.886
321.143
320.399
319.655
318.911
318.166
317.42
316.673
315.924
315.175
314.424
313.671
312.915
312.158
322.628
321.884
321.139
320.395
319.649
318.904
318.157
317.41
316.662
315.912
315.162
314.41
313.656
312.899
312.138
322.627
321.882
321.136
320.39
319.644
318.897
318.149
317.401
316.651
315.901
315.15
314.397
313.643
312.887
312.129
322.627
321.88
321.133
320.386
319.639
318.891
318.142
317.392
316.642
315.891
315.139
314.385
313.631
312.875
312.121
322.626
321.878
321.131
320.382
319.634
318.885
318.135
317.385
316.634
315.882
315.129
314.375
313.62
312.864
312.107
322.626
321.877
321.128
320.379
319.63
318.88
318.129
317.378
316.626
315.873
315.12
314.365
313.61
312.854
312.098
322.625
321.876
321.126
320.376
319.626
318.875
318.124
317.372
316.619
315.866
315.111
314.356
313.6
312.843
312.085
322.625
321.874
321.124
320.373
319.622
318.871
318.119
317.366
316.613
315.859
315.104
314.348
313.591
312.834
312.077
322.624
321.873
321.122
320.371
319.619
318.867
318.114
317.361
316.607
315.852
315.097
314.341
313.583
312.825
312.064
322.624
321.872
321.121
320.368
319.616
318.863
318.11
317.356
316.602
315.847
315.091
314.334
313.576
312.818
312.057
322.624
321.872
321.119
320.367
319.614
318.86
318.107
317.352
316.597
315.842
315.086
314.329
313.571
312.811
312.05
322.624
321.871
321.118
320.365
319.611
318.858
318.104
317.349
316.594
315.838
315.081
314.324
313.566
312.807
312.047
322.623
321.87
321.117
320.363
319.61
318.856
318.101
317.346
316.59
315.834
315.077
314.32
313.562
312.803
312.044
322.623
321.87
321.116
320.362
319.608
318.854
318.099
317.343
316.588
315.831
315.074
314.317
313.558
312.799
312.04
322.623
321.869
321.115
320.361
319.607
318.852
318.097
317.342
316.585
315.829
315.072
314.314
313.556
312.797
312.037
322.623
321.869
321.115
320.36
319.606
318.851
318.096
317.34
316.584
315.827
315.07
314.312
313.553
312.794
312.034
322.623
321.869
321.114
320.36
319.605
318.85
318.095
317.339
316.583
315.826
315.068
314.31
313.552
312.793
312.033
322.623
321.869
321.114
320.36
319.605
318.85
318.094
317.338
316.582
315.825
315.068
314.309
313.551
312.791
312.031
322.623
321.869
321.114
320.36
319.605
318.85
318.094
317.338
316.582
315.825
315.067
314.309
313.55
312.791
312.031
322.623
321.869
321.114
320.36
319.605
318.85
318.094
317.339
316.582
315.825
315.068
314.309
313.551
312.791
312.031
322.623
321.869
321.115
320.36
319.605
318.85
318.095
317.339
316.583
315.826
315.069
314.31
313.552
312.792
312.032
322.623
321.869
321.115
320.361
319.606
318.851
318.096
317.34
316.584
315.827
315.07
314.312
313.553
312.794
312.033
322.623
321.869
321.116
320.362
319.607
318.853
318.098
317.342
316.586
315.83
315.072
314.314
313.556
312.796
312.036
322.623
321.87
321.116
320.363
319.609
318.854
318.1
317.344
316.589
315.832
315.075
314.317
313.559
312.799
312.038
322.624
321.871
321.117
320.364
319.61
318.856
318.102
317.347
316.592
315.835
315.079
314.321
313.563
312.803
312.044
322.624
321.871
321.119
320.366
319.612
318.859
318.105
317.35
316.595
315.839
315.083
314.325
313.567
312.808
312.048
322.624
321.872
321.12
320.367
319.615
318.862
318.108
317.354
316.599
315.844
315.088
314.331
313.573
312.815
312.057
322.624
321.873
321.121
320.37
319.617
318.865
318.112
317.358
316.604
315.849
315.093
314.337
313.579
312.821
312.062
322.625
321.874
321.123
320.372
319.621
318.869
318.116
317.363
316.609
315.855
315.099
314.343
313.586
312.828
312.071
322.625
321.875
321.125
320.375
319.624
318.873
318.121
317.369
316.615
315.861
315.106
314.35
313.593
312.835
312.076
322.625
321.876
321.127
320.378
319.628
318.877
318.126
317.375
316.622
315.869
315.114
314.359
313.602
312.843
312.081
322.626
321.878
321.13
320.381
319.632
318.883
318.132
317.381
316.63
315.877
315.123
314.368
313.612
312.853
312.093
322.626
321.879
321.132
320.385
319.637
318.888
318.139
317.389
316.638
315.886
315.133
314.379
313.623
312.865
312.103
322.627
321.881
321.135
320.389
319.642
318.894
318.146
317.397
316.647
315.896
315.144
314.391
313.636
312.879
312.121
322.628
321.883
321.138
320.393
319.647
318.901
318.154
317.406
316.657
315.907
315.156
314.404
313.65
312.894
312.134
322.628
321.885
321.142
320.398
319.653
318.908
318.163
317.416
316.668
315.92
315.17
314.418
313.666
312.912
312.161
322.629
321.887
321.145
320.403
319.66
318.916
318.172
317.427
316.68
315.933
315.184
314.434
313.682
312.93
312.176
322.63
321.89
321.149
320.408
319.667
318.925
318.182
317.438
316.693
315.947
315.199
314.45
313.699
312.948
312.2
322.631
321.892
321.154
320.414
319.675
318.934
318.193
317.451
316.707
315.962
315.216
314.468
313.717
312.965
312.212
322.632
321.895
321.158
320.421
319.683
318.944
318.205
317.464
316.722
315.979
315.234
314.487
313.737
312.984
312.225
322.633
321.898
321.163
320.428
319.692
318.955
318.217
317.478
316.738
315.997
315.253
314.507
313.759
313.008
312.254
322.634
321.901
321.168
320.435
319.701
318.966
318.231
317.494
316.756
316.016
315.274
314.53
313.784
313.033
312.275
322.635
321.905
321.174
320.443
319.711
318.979
318.245
317.51
316.774
316.036
315.297
314.555
313.811
313.064
312.316
322.636
321.908
321.18
320.451
319.722
318.992
318.26
317.528
316.794
316.059
315.321
314.582
313.841
313.097
312.345
322.637
321.912
321.186
320.46
319.733
319.005
318.277
317.547
316.815
316.082
315.347
314.611
313.873
313.134
312.4
322.639
321.916
321.193
320.469
319.745
319.02
318.294
317.566
316.837
316.107
315.375
314.641
313.906
313.169
312.432
322.64
321.92
321.2
320.479
319.758
319.035
318.312
317.587
316.861
316.133
315.403
314.672
313.939
313.206
312.479
322.642
321.925
321.207
320.49
319.771
319.052
318.331
317.609
316.886
316.16
315.433
314.704
313.972
313.239
312.503
322.643
321.929
321.215
320.501
319.785
319.069
318.351
317.632
316.912
316.189
315.465
314.738
314.008
313.273
312.527
322.645
321.934
321.224
320.512
319.8
319.087
318.373
317.657
316.939
316.22
315.498
314.774
314.046
313.315
312.58
322.647
321.94
321.232
320.525
319.816
319.106
318.395
317.683
316.968
316.252
315.534
314.813
314.088
313.359
312.618
322.648
321.945
321.242
320.537
319.832
319.126
318.419
317.71
316.999
316.286
315.571
314.854
314.134
313.411
312.687
322.65
321.951
321.251
320.551
319.85
319.147
318.443
317.738
317.031
316.322
315.61
314.897
314.181
313.463
312.735
322.652
321.957
321.261
320.565
319.868
319.169
318.469
317.768
317.064
316.359
315.651
314.942
314.231
313.522
312.822
322.654
321.963
321.272
320.58
319.887
319.192
318.497
317.799
317.1
316.398
315.694
314.988
314.281
313.574
312.869
322.657
321.97
321.283
320.595
319.906
319.217
318.525
317.832
317.136
316.438
315.738
315.035
314.33
313.627
312.935
322.659
321.977
321.294
320.611
319.927
319.242
318.555
317.866
317.175
316.481
315.783
315.082
314.378
313.672
312.966
322.661
321.984
321.306
320.628
319.949
319.268
318.586
317.902
317.216
316.526
315.832
315.133
314.428
313.716
312.994
322.664
321.991
321.319
320.645
319.971
319.296
318.619
317.941
317.259
316.574
315.884
315.187
314.482
313.768
313.047
322.666
321.999
321.331
320.663
319.995
319.325
318.654
317.981
317.305
316.626
315.941
315.248
314.544
313.823
313.081
322.669
322.007
321.344
320.682
320.019
319.355
318.689
318.023
317.354
316.681
316.003
315.317
314.617
313.893
313.126
322.672
322.015
321.358
320.701
320.043
319.385
318.726
318.066
317.405
316.74
316.071
315.396
314.707
313.994
313.215
292.775
291.996
291.283
290.597
289.922
289.254
288.591
287.93
287.271
286.613
285.955
285.298
284.641
283.985
283.328
292.859
292.091
291.369
290.671
289.987
289.311
288.64
287.972
287.307
286.642
285.979
285.316
284.654
283.992
283.331
292.892
292.154
291.437
290.737
290.047
289.365
288.687
288.013
287.341
286.671
286.002
285.334
284.667
284
283.333
292.914
292.202
291.494
290.794
290.102
289.415
288.732
288.052
287.375
286.699
286.025
285.352
284.68
284.008
283.336
292.94
292.246
291.545
290.847
290.152
289.461
288.774
288.089
287.407
286.726
286.047
285.369
284.692
284.015
283.338
292.991
292.294
291.595
290.897
290.2
289.506
288.814
288.125
287.438
286.752
286.068
285.386
284.703
284.022
283.341
293.03
292.343
291.645
290.945
290.246
289.548
288.852
288.159
287.467
286.777
286.089
285.401
284.715
284.029
283.343
293.103
292.399
291.696
290.993
290.29
289.589
288.889
288.191
287.496
286.801
286.109
285.417
284.726
284.035
283.345
293.153
292.455
291.748
291.04
290.333
289.628
288.924
288.223
287.523
286.824
286.127
285.431
284.736
284.041
283.347
293.244
292.517
291.8
291.086
290.375
289.665
288.958
288.253
287.549
286.847
286.145
285.445
284.746
284.047
283.349
293.294
292.571
291.849
291.131
290.415
289.702
288.991
288.281
287.574
286.868
286.163
285.459
284.756
284.053
283.351
293.366
292.625
291.896
291.173
290.453
289.736
289.022
288.309
287.598
286.888
286.179
285.472
284.765
284.059
283.353
293.404
292.67
291.939
291.213
290.49
289.769
289.051
288.335
287.62
286.907
286.195
285.484
284.774
284.064
283.355
293.459
292.713
291.979
291.25
290.524
289.801
289.079
288.36
287.642
286.925
286.21
285.496
284.782
284.069
283.356
293.484
292.749
292.015
291.285
290.556
289.83
289.106
288.383
287.662
286.943
286.224
285.507
284.79
284.074
283.358
293.508
292.782
292.05
291.318
290.587
289.858
289.131
288.406
287.682
286.959
286.238
285.518
284.798
284.078
283.359
293.557
292.819
292.084
291.349
290.616
289.885
289.155
288.427
287.701
286.975
286.251
285.528
284.805
284.083
283.361
293.589
292.855
292.117
291.38
290.644
289.91
289.178
288.447
287.718
286.99
286.263
285.537
284.812
284.087
283.362
293.646
292.894
292.15
291.409
290.671
289.934
289.2
288.466
287.735
287.004
286.275
285.546
284.818
284.091
283.364
293.675
292.927
292.181
291.437
290.696
289.957
289.22
288.484
287.75
287.017
286.286
285.555
284.824
284.094
283.365
293.717
292.959
292.209
291.462
290.719
289.978
289.239
288.501
287.765
287.03
286.296
285.563
284.83
284.098
283.366
293.739
292.985
292.234
291.486
290.741
289.998
289.257
288.517
287.779
287.042
286.305
285.57
284.835
284.101
283.367
293.768
293.009
292.256
291.507
290.761
290.016
289.273
288.532
287.792
287.053
286.314
285.577
284.84
284.104
283.368
293.782
293.028
292.277
291.527
290.779
290.033
289.289
288.545
287.804
287.063
286.323
285.584
284.845
284.107
283.369
293.794
293.046
292.295
291.545
290.796
290.049
289.303
288.558
287.815
287.072
286.331
285.59
284.85
284.11
283.37
293.819
293.065
292.313
291.562
290.812
290.063
289.316
288.57
287.825
287.081
286.338
285.596
284.854
284.112
283.371
293.834
293.083
292.33
291.578
290.826
290.077
289.328
288.581
287.835
287.089
286.345
285.601
284.857
284.114
283.371
293.861
293.102
292.346
291.592
290.84
290.089
289.34
288.591
287.844
287.097
286.351
285.606
284.861
284.116
283.372
293.875
293.117
292.361
291.606
290.853
290.101
289.35
288.6
287.852
287.104
286.357
285.61
284.864
284.118
283.373
293.894
293.132
292.374
291.618
290.864
290.111
289.36
288.609
287.859
287.11
286.362
285.614
284.867
284.12
283.373
293.903
293.144
292.386
291.629
290.874
290.121
289.368
288.617
287.866
287.116
286.367
285.618
284.87
284.122
283.374
293.916
293.154
292.396
291.639
290.884
290.129
289.376
288.624
287.872
287.122
286.371
285.622
284.872
284.123
283.374
293.922
293.162
292.404
291.648
290.892
290.137
289.383
288.63
287.878
287.126
286.375
285.625
284.875
284.125
283.375
293.926
293.17
292.412
291.655
290.899
290.144
289.39
288.636
287.883
287.131
286.379
285.628
284.877
284.126
283.375
293.936
293.177
292.419
291.662
290.906
290.15
289.395
288.641
287.888
287.135
286.382
285.63
284.878
284.127
283.376
293.942
293.184
292.426
291.668
290.912
290.156
289.4
288.646
287.892
287.138
286.385
285.632
284.88
284.128
283.376
293.951
293.191