/*--------------------------------*- C++ -*----------------------------------*\
| =========                 |                                                 |
| \\      /  F ield         | OpenFOAM: The Open Source CFD Toolbox           |
|  \\    /   O peration     | Version:  5.x                                   |
|   \\  /    A nd           | Web:      www.OpenFOAM.org                      |
|    \\/     M anipulation  |                                                 |
\*---------------------------------------------------------------------------*/
FoamFile
{
    version     2.0;
    format      ascii;
    class       volScalarField;
    location    "4.4";
    object      gradTx;
}
// * * * * * * * * * * * * * * * * * * * * * * * * * * * * * * * * * * * * * //

dimensions      [0 -1 0 1 0 0 0];

internalField   nonuniform List<scalar> 
6300
(
-50.3662
-50.3477
-50.3105
-50.2547
-50.1799
-50.0861
-49.9733
-49.8415
-49.6913
-49.5232
-49.3384
-49.1382
-48.9242
-48.698
-48.4609
-50.385
-50.3666
-50.3296
-50.2739
-50.1992
-50.1055
-49.9925
-49.8604
-49.7094
-49.5403
-49.3542
-49.1524
-48.9368
-48.7092
-48.4714
-50.4227
-50.4044
-50.3677
-50.3124
-50.238
-50.1444
-50.0312
-49.8984
-49.7461
-49.5749
-49.3859
-49.1808
-48.9617
-48.7312
-48.4915
-50.4789
-50.461
-50.4248
-50.3701
-50.2964
-50.2032
-50.0899
-49.9562
-49.8019
-49.6275
-49.4341
-49.2235
-48.9985
-48.7626
-48.5194
-50.5535
-50.536
-50.5008
-50.4472
-50.3747
-50.2825
-50.1695
-50.0349
-49.8783
-49.6996
-49.4998
-49.2809
-49.0466
-48.8017
-48.5519
-50.646
-50.6292
-50.5953
-50.5436
-50.4732
-50.3827
-50.2708
-50.136
-49.977
-49.7931
-49.5848
-49.3542
-49.1057
-48.8461
-48.5843
-50.7555
-50.7398
-50.7079
-50.6591
-50.592
-50.5048
-50.3955
-50.2617
-50.101
-49.9115
-49.6926
-49.4458
-49.1761
-48.8931
-48.6103
-50.881
-50.8668
-50.8379
-50.7932
-50.7311
-50.6493
-50.545
-50.4146
-50.2541
-50.0597
-49.8286
-49.5605
-49.2603
-48.9402
-48.6207
-51.0211
-51.0089
-50.984
-50.945
-50.8902
-50.8168
-50.7209
-50.5978
-50.4415
-50.245
-50.0018
-49.7077
-49.3648
-48.987
-48.6046
-51.1738
-51.1642
-51.1444
-51.1131
-51.0683
-51.0069
-50.9245
-50.8147
-50.6693
-50.4774
-50.2263
-49.9039
-49.5044
-49.0389
-48.5489
-51.3363
-51.3299
-51.3165
-51.295
-51.2633
-51.2185
-51.1556
-51.0676
-50.9439
-50.7692
-50.5225
-50.1776
-49.7103
-49.1155
-48.4424
-51.5057
-51.503
-51.4972
-51.4873
-51.4719
-51.4483
-51.4122
-51.3565
-51.2699
-51.1334
-50.9169
-50.5741
-50.0437
-49.2708
-48.2828
-51.678
-51.6795
-51.6821
-51.6856
-51.6891
-51.691
-51.6886
-51.6767
-51.6459
-51.5779
-51.4377
-51.1585
-50.62
-49.6414
-48.098
-51.8493
-51.855
-51.8667
-51.8843
-51.9081
-51.9383
-51.9747
-52.0161
-52.0593
-52.0948
-52.0979
-52.0026
-51.6366
-50.5773
-48.035
-52.0151
-52.0251
-52.0455
-52.0771
-52.1212
-52.1798
-52.256
-52.3541
-52.4805
-52.6444
-52.8565
-53.1177
-53.3472
-52.9967
-48.9894
-48.235
-48.0219
-47.8011
-47.5715
-47.3312
-47.0785
-46.8109
-46.5266
-46.2236
-45.9008
-45.5577
-45.1945
-44.8122
-44.4123
-43.9969
-43.5684
-43.1293
-42.6825
-42.2308
-41.777
-41.3241
-40.875
-40.4323
-39.9986
-39.576
-39.1664
-38.7712
-38.3914
-38.0275
-37.6798
-37.3479
-37.0314
-36.7292
-36.4403
-36.1633
-35.8969
-35.6396
-35.39
-35.147
-34.9093
-34.6756
-34.4451
-34.2169
-33.9905
-33.7654
-33.542
-33.3205
-33.1021
-32.8878
-32.6791
-32.4775
-32.2846
-32.1018
-31.9303
-31.7711
-31.625
-31.4925
-31.3737
-31.2688
-31.1775
-31.0994
-31.0343
-30.9816
-30.9411
-30.9125
-30.8955
-30.89
-30.896
-30.9132
-30.9417
-30.9815
-31.0325
-31.0947
-31.1683
-31.2534
-31.3501
-31.4583
-31.5781
-31.7094
-31.8519
-32.0054
-32.1695
-32.3438
-32.5279
-32.7208
-32.9217
-33.1294
-33.3423
-33.5586
-33.7765
-48.2456
-48.0334
-47.8143
-47.587
-47.3497
-47.1001
-46.8356
-46.5537
-46.2525
-45.9304
-45.587
-45.2224
-44.8378
-44.435
-44.0162
-43.5839
-43.1409
-42.6899
-42.234
-41.7761
-41.3191
-40.866
-40.4197
-39.9829
-39.5576
-39.146
-38.7493
-38.3687
-38.0046
-37.6572
-37.3262
-37.0109
-36.7104
-36.4233
-36.1483
-35.8839
-35.6285
-35.3809
-35.1396
-34.9034
-34.6712
-34.4419
-34.2146
-33.9885
-33.7633
-33.5391
-33.3163
-33.0961
-32.8797
-32.6688
-32.465
-32.2701
-32.0855
-31.9125
-31.7522
-31.6054
-31.4725
-31.3537
-31.249
-31.1581
-31.0806
-31.0161
-30.9639
-30.9238
-30.8955
-30.8787
-30.8733
-30.8794
-30.8967
-30.9253
-30.965
-31.0159
-31.078
-31.1515
-31.2364
-31.333
-31.4413
-31.5613
-31.6928
-31.8357
-31.9896
-32.1544
-32.3295
-32.5146
-32.7089
-32.9116
-33.1214
-33.3369
-33.5561
-33.777
-48.2656
-48.0552
-47.8396
-47.6174
-47.3864
-47.1436
-46.8856
-46.6092
-46.3117
-45.9912
-45.647
-45.2795
-44.8902
-44.4812
-44.0552
-43.6153
-43.1642
-42.7049
-42.2406
-41.7741
-41.3087
-40.8477
-40.394
-39.9507
-39.5201
-39.1043
-38.7047
-38.3224
-37.9579
-37.6112
-37.282
-36.9695
-36.6724
-36.3893
-36.1184
-35.858
-35.6066
-35.3627
-35.125
-34.8921
-34.6629
-34.436
-34.2105
-33.9853
-33.7598
-33.534
-33.3086
-33.0846
-32.8638
-32.6482
-32.4398
-32.2406
-32.0523
-31.8763
-31.7138
-31.5656
-31.432
-31.3133
-31.2092
-31.1194
-31.0431
-30.9797
-30.9286
-30.8893
-30.8615
-30.8451
-30.84
-30.8462
-30.8637
-30.8924
-30.9321
-30.9828
-31.0446
-31.1177
-31.2023
-31.2987
-31.407
-31.5273
-31.6594
-31.8031
-31.958
-32.1239
-32.3005
-32.4875
-32.6845
-32.8907
-33.1048
-33.3255
-33.5506
-33.7778
-48.2928
-48.0848
-47.8747
-47.6609
-47.4404
-47.2092
-46.9625
-46.6956
-46.4045
-46.0866
-45.741
-45.3685
-44.9711
-44.5521
-44.1149
-43.663
-43.1996
-42.7277
-42.2505
-41.7709
-41.2925
-40.819
-40.3538
-39.9004
-39.4616
-39.0394
-38.6355
-38.2508
-37.8858
-37.5404
-37.2142
-36.9061
-36.6146
-36.3378
-36.0734
-35.8195
-35.5742
-35.3359
-35.1034
-34.8756
-34.6511
-34.4285
-34.2061
-33.9825
-33.7568
-33.5286
-33.2987
-33.0686
-32.8405
-32.6172
-32.4013
-32.1953
-32.0012
-31.8207
-31.6549
-31.5045
-31.3701
-31.2516
-31.1488
-31.0608
-30.9868
-30.9255
-30.8761
-30.838
-30.8109
-30.7949
-30.79
-30.7965
-30.8144
-30.8433
-30.883
-30.9334
-30.9946
-31.0669
-31.1508
-31.2468
-31.3552
-31.476
-31.6091
-31.7539
-31.9101
-32.0775
-32.256
-32.4457
-32.6464
-32.8577
-33.0786
-33.3073
-33.5416
-33.7787
-48.323
-48.1178
-47.9155
-47.7144
-47.5104
-47.2976
-47.0689
-46.8171
-46.5362
-46.2223
-45.8742
-45.4935
-45.0837
-44.6496
-44.1961
-43.7276
-43.2475
-42.7587
-42.264
-41.7664
-41.2698
-40.7785
-40.297
-39.8295
-39.3793
-38.9487
-38.5391
-38.1513
-37.7857
-37.4422
-37.1204
-36.819
-36.536
-36.2685
-36.0137
-35.7688
-35.5317
-35.3009
-35.0755
-34.8545
-34.6369
-34.4206
-34.2034
-33.983
-33.7573
-33.5258
-33.2892
-33.0496
-32.8104
-32.5755
-32.3485
-32.1328
-31.9307
-31.7439
-31.5735
-31.4204
-31.285
-31.1673
-31.0667
-30.9821
-30.9118
-30.854
-30.8072
-30.7706
-30.7442
-30.7282
-30.7235
-30.7303
-30.7487
-30.7782
-30.8182
-30.8682
-30.9283
-30.9991
-31.0816
-31.1767
-31.2851
-31.4068
-31.5413
-31.6878
-31.8457
-32.0147
-32.1951
-32.3875
-32.5927
-32.8106
-33.0404
-33.2805
-33.5279
-33.7794
-48.3499
-48.147
-47.9551
-47.7725
-47.5935
-47.4094
-47.209
-46.981
-46.7158
-46.4075
-46.0548
-45.6608
-45.2317
-44.7755
-44.2995
-43.8093
-43.3084
-42.7987
-42.282
-41.7609
-41.2398
-40.7242
-40.2205
-39.7341
-39.2691
-38.828
-38.4116
-38.0201
-37.6539
-37.3132
-36.9976
-36.7059
-36.4351
-36.1813
-35.9399
-35.7072
-35.4803
-35.2583
-35.0412
-34.8289
-34.6207
-34.4142
-34.2057
-33.9909
-33.7664
-33.5304
-33.2839
-33.0301
-32.7742
-32.5222
-32.2796
-32.0506
-31.838
-31.6432
-31.4672
-31.3107
-31.1742
-31.0581
-30.9615
-30.8826
-30.8186
-30.7663
-30.7233
-30.6885
-30.6619
-30.6452
-30.6399
-30.6471
-30.6667
-30.6977
-30.7385
-30.7881
-30.8462
-30.9141
-30.9937
-31.087
-31.1954
-31.3187
-31.4558
-31.605
-31.7648
-31.9349
-32.1162
-32.3106
-32.5201
-32.7457
-32.9872
-33.2425
-33.508
-33.7792
-48.3637
-48.1608
-47.9818
-47.8255
-47.6845
-47.5451
-47.3894
-47.1988
-46.9579
-46.6572
-46.2954
-45.8789
-45.4193
-44.9303
-44.4236
-43.9068
-43.3822
-42.8492
-42.3067
-41.7559
-41.2021
-40.6534
-40.1193
-39.6081
-39.1251
-38.672
-38.2483
-37.8529
-37.4859
-37.1482
-36.8408
-36.5628
-36.3101
-36.0764
-35.8541
-35.6372
-35.4221
-35.209
-35
-34.7977
-34.6024
-34.4109
-34.2171
-34.013
-33.792
-33.5504
-33.2892
-33.0137
-32.7325
-32.4554
-32.1909
-31.9447
-31.7195
-31.5156
-31.3329
-31.1719
-31.0341
-30.9205
-30.8306
-30.7616
-30.7083
-30.6651
-30.6276
-30.5939
-30.5654
-30.5454
-30.538
-30.5456
-30.568
-30.6027
-30.646
-30.6952
-30.7498
-30.8119
-30.8856
-30.9754
-31.0837
-31.2104
-31.3526
-31.5064
-31.6687
-31.8386
-32.0181
-32.2116
-32.4237
-32.6576
-32.9137
-33.1892
-33.4792
-33.7775
-48.3495
-48.1407
-47.9761
-47.857
-47.7736
-47.7045
-47.6203
-47.4897
-47.2863
-46.9951
-46.6152
-46.1593
-45.6497
-45.1108
-44.5627
-44.0157
-43.4687
-42.9139
-42.3435
-41.7557
-41.1573
-40.5618
-39.9855
-39.4419
-38.9382
-38.4741
-38.0446
-37.6453
-37.2758
-36.9398
-36.642
-36.3834
-36.1582
-35.9551
-35.7609
-35.5646
-35.3615
-35.1538
-34.9494
-34.7564
-34.5785
-34.4113
-34.2432
-34.0597
-33.8473
-33.5987
-33.315
-33.0054
-32.685
-32.3705
-32.0758
-31.8087
-31.5702
-31.3573
-31.1671
-30.9997
-30.8589
-30.7486
-30.6697
-30.6176
-30.5831
-30.5554
-30.526
-30.4918
-30.4562
-30.4273
-30.4143
-30.4225
-30.4514
-30.4948
-30.5446
-30.5943
-30.6421
-30.6925
-30.7541
-30.8365
-30.9452
-31.0793
-31.2322
-31.3952
-31.5612
-31.7279
-31.8996
-32.0853
-32.2954
-32.5372
-32.8116
-33.1146
-33.4382
-33.7734
-48.2854
-48.0571
-47.9053
-47.8375
-47.8424
-47.8862
-47.9186
-47.8856
-47.7418
-47.4612
-47.0446
-46.5176
-45.9225
-45.3049
-44.7008
-44.1249
-43.5668
-43.0014
-42.4056
-41.7712
-41.1087
-40.4432
-39.8047
-39.2184
-38.6948
-38.2267
-37.7978
-37.3951
-37.0176
-36.6766
-36.3871
-36.1561
-35.9746
-35.8214
-35.6708
-35.5022
-35.3075
-35.0943
-34.8824
-34.6937
-34.5395
-34.4129
-34.2919
-34.1478
-33.9548
-33.6978
-33.378
-33.0126
-32.629
-32.2571
-31.921
-31.6314
-31.384
-31.1663
-30.9682
-30.7894
-30.6395
-30.5312
-30.47
-30.4483
-30.4481
-30.4479
-30.4311
-30.3916
-30.3371
-30.2862
-30.2596
-30.2694
-30.3135
-30.3775
-30.4431
-30.4956
-30.5305
-30.5564
-30.5925
-30.6595
-30.7698
-30.9206
-31.0969
-31.2794
-31.4523
-31.6098
-31.7603
-31.9234
-32.1213
-32.3691
-32.6682
-33.0097
-33.3801
-33.7662
-48.1391
-47.8634
-47.7139
-47.7132
-47.8555
-48.0844
-48.3114
-48.4414
-48.3944
-48.1237
-47.633
-46.9745
-46.228
-45.4799
-44.7987
-44.209
-43.6756
-43.133
-42.5238
-41.8272
-41.0648
-40.2857
-39.5492
-38.905
-38.3716
-37.923
-37.5136
-37.1089
-36.7071
-36.3396
-36.0483
-35.8575
-35.7507
-35.6841
-35.6067
-35.4776
-35.2804
-35.0329
-34.7821
-34.5813
-34.4607
-34.4066
-34.3739
-34.3066
-34.1544
-33.8872
-33.5068
-33.0462
-32.5562
-32.0923
-31.699
-31.3933
-31.155
-30.947
-30.7414
-30.5372
-30.3604
-30.2458
-30.2132
-30.2479
-30.3127
-30.3643
-30.3687
-30.3126
-30.2125
-30.11
-30.052
-30.0669
-30.1465
-30.2577
-30.3602
-30.422
-30.4314
-30.4054
-30.3859
-30.42
-30.5358
-30.7246
-30.9524
-31.1772
-31.3649
-31.5015
-31.6027
-31.7109
-31.8749
-32.1267
-32.4636
-32.8627
-33.2989
-33.7548
-47.8634
-47.4882
-47.3086
-47.3833
-47.7442
-48.2853
-48.844
-49.2524
-49.3692
-49.1032
-48.4636
-47.5583
-46.536
-45.5589
-44.7648
-44.2124
-43.7978
-43.3607
-42.768
-41.9785
-41.0454
-40.067
-39.1611
-38.4323
-37.9265
-37.5631
-37.223
-36.8186
-36.3476
-35.8928
-35.5651
-35.4381
-35.4689
-35.5625
-35.617
-35.5514
-35.3259
-34.9762
-34.6103
-34.3534
-34.2864
-34.3694
-34.506
-34.5876
-34.5196
-34.2397
-33.7513
-33.1219
-32.4457
-31.8259
-31.3508
-31.0582
-30.8821
-30.7243
-30.5126
-30.2454
-29.9914
-29.8425
-29.8592
-30.004
-30.196
-30.3486
-30.3932
-30.2969
-30.0913
-29.8693
-29.7391
-29.7711
-29.9339
-30.1501
-30.3356
-30.4238
-30.3828
-30.2446
-30.1019
-30.0625
-30.1965
-30.4724
-30.8118
-31.1282
-31.351
-31.4435
-31.4349
-31.4176
-31.5018
-31.7614
-32.1691
-32.6619
-33.1893
-33.7363
-47.3842
-46.832
-46.5374
-46.6419
-47.3738
-48.4612
-49.5932
-50.4837
-50.8958
-50.6211
-49.6773
-48.3107
-46.7795
-45.3748
-44.3834
-44.0175
-43.9526
-43.8131
-43.2957
-42.3369
-41.0914
-39.7444
-38.5182
-37.6389
-37.2765
-37.1699
-37.0255
-36.6243
-35.9649
-35.2634
-34.7932
-34.7918
-35.0969
-35.4974
-35.8006
-35.8557
-35.5504
-34.9432
-34.2815
-33.8521
-33.8963
-34.2551
-34.7175
-35.0841
-35.19
-34.8926
-34.1987
-33.2648
-32.2543
-31.3512
-30.7395
-30.5555
-30.5828
-30.5792
-30.3635
-29.9346
-29.4709
-29.2005
-29.3205
-29.6921
-30.1361
-30.4881
-30.6203
-30.4384
-29.9933
-29.4964
-29.1923
-29.2867
-29.644
-30.0863
-30.4509
-30.6112
-30.474
-30.0899
-29.669
-29.4548
-29.6526
-30.1282
-30.704
-31.2137
-31.5242
-31.531
-31.279
-30.9777
-30.8757
-31.1826
-31.7516
-32.411
-33.0511
-33.6933
-46.5459
-45.8054
-45.1925
-44.9975
-46.4924
-48.5737
-50.6907
-52.4043
-53.4118
-53.1029
-51.5003
-49.301
-46.8413
-44.5959
-43.1019
-43.3897
-44.2154
-44.8102
-44.4597
-43.1086
-41.2843
-39.2482
-37.3763
-36.1015
-36.2585
-36.8318
-37.198
-36.802
-35.6435
-34.3011
-33.3467
-33.7047
-34.5877
-35.5729
-36.3418
-36.6791
-36.2101
-34.9889
-33.6186
-32.669
-33.0533
-33.992
-35.0669
-35.9565
-36.441
-36.1167
-34.9919
-33.5184
-31.908
-30.4569
-29.5123
-29.7484
-30.3281
-30.7394
-30.5212
-29.6737
-28.6722
-27.996
-28.4193
-29.2755
-30.2084
-30.9438
-31.2994
-30.9587
-29.9694
-28.8454
-28.0714
-28.4233
-29.2312
-30.134
-30.8598
-31.2266
-30.9203
-29.9876
-28.9376
-28.2534
-28.7083
-29.6392
-30.6907
-31.5856
-32.134
-31.9906
-31.1938
-30.2501
-29.6601
-30.2261
-31.2033
-32.1873
-32.9095
-33.5341
-44.7771
-44.595
-43.2458
-40.9193
-44.7666
-48.635
-52.3695
-55.3421
-57.8239
-57.448
-54.183
-50.6664
-46.5949
-42.7352
-39.2547
-41.9878
-44.8111
-47.1688
-47.0648
-44.5621
-41.7824
-38.5159
-35.3747
-32.5027
-34.6412
-36.7923
-38.4686
-38.0778
-35.5873
-32.7802
-30.0105
-31.8617
-33.9317
-35.96
-37.5046
-38.6636
-37.9534
-35.2494
-32.3498
-29.5653
-31.4119
-33.533
-35.6834
-37.4121
-38.8567
-38.4936
-36.2873
-33.9688
-31.3325
-28.8331
-26.5851
-28.4463
-30.3158
-31.8062
-31.585
-29.6343
-27.4048
-25.2084
-26.8943
-28.7485
-30.565
-31.9461
-32.9807
-32.413
-30.1391
-27.6902
-25.3289
-26.903
-28.6814
-30.4364
-31.7854
-32.8107
-32.2681
-30.0541
-27.6793
-25.4116
-27.0779
-28.9763
-30.9024
-32.4563
-33.7398
-33.3906
-31.3198
-29.013
-26.7795
-28.6773
-30.6447
-32.3404
-32.9079
-32.787
-38.9994
-45.0649
-42.7073
-27.9513
-43.0111
-48.8894
-55.146
-58.9872
-66.3514
-65.9541
-57.2286
-52.8315
-46.044
-40.3289
-26.4601
-40.4566
-46.0775
-53.0726
-53.1247
-46.415
-42.9819
-37.6037
-32.9858
-21.689
-33.0063
-37.4367
-42.7162
-42.3777
-35.9873
-31.2057
-20.0205
-29.7041
-33.3358
-37.0441
-39.2231
-43.3401
-42.568
-35.7918
-30.9154
-19.7932
-29.3754
-33.0319
-36.9074
-39.2768
-43.8758
-43.5247
-37.7444
-34.8772
-30.5597
-26.8472
-17.7407
-27.1322
-30.8492
-35.3374
-35.1393
-29.9962
-26.0898
-16.83
-25.1269
-28.2756
-31.5482
-33.4471
-36.9692
-36.3237
-30.5604
-26.4086
-16.9191
-25.0883
-28.1648
-31.3229
-33.1768
-36.6522
-36.0223
-30.3516
-26.2663
-16.9044
-25.113
-28.273
-31.6495
-33.7156
-37.6964
-37.269
-31.7853
-27.6696
-17.9496
-27.0277
-30.477
-34.1175
-33.8967
-28.9609
-34.0152
-34.2715
-34.5197
-34.7565
-34.979
-35.1849
-35.3723
-35.54
-35.6872
-35.8134
-35.9184
-36.0023
-36.065
-36.1068
-36.1276
-34.0192
-34.2791
-34.5307
-34.7704
-34.9953
-35.2029
-35.3916
-35.5601
-35.7077
-35.8341
-35.9392
-36.023
-36.0856
-36.1272
-36.148
-34.0271
-34.2945
-34.553
-34.7986
-35.0282
-35.2394
-35.4306
-35.6006
-35.7491
-35.8758
-35.9808
-36.0643
-36.1267
-36.1681
-36.1888
-34.0393
-34.3186
-34.5877
-34.8424
-35.0791
-35.2956
-35.4902
-35.6623
-35.8117
-35.9386
-36.0434
-36.1265
-36.1883
-36.2293
-36.2498
-34.056
-34.3522
-34.6365
-34.9036
-35.1499
-35.373
-35.5719
-35.7463
-35.8965
-36.0232
-36.1273
-36.2094
-36.2704
-36.3107
-36.3308
-34.0781
-34.3974
-34.7018
-34.9851
-35.2433
-35.4743
-35.6777
-35.8539
-36.0043
-36.13
-36.2326
-36.3131
-36.3726
-36.4119
-36.4314
-34.1067
-34.4571
-34.7878
-35.0913
-35.3634
-35.6027
-35.81
-35.9871
-36.1362
-36.2596
-36.3594
-36.4374
-36.4947
-36.5324
-36.5511
-34.1439
-34.5359
-34.9006
-35.2286
-35.5159
-35.7628
-35.9721
-36.1477
-36.2933
-36.4123
-36.5078
-36.5817
-36.6359
-36.6715
-36.689
-34.1934
-34.6414
-35.0497
-35.4062
-35.7085
-35.9601
-36.1676
-36.3377
-36.4763
-36.5882
-36.6771
-36.7455
-36.7954
-36.828
-36.8441
-34.2612
-34.7864
-35.2502
-35.6378
-35.9514
-36.2013
-36.4002
-36.5588
-36.6857
-36.7867
-36.8663
-36.9273
-36.9716
-37.0006
-37.0149
-34.3566
-34.9927
-35.5264
-35.9431
-36.2576
-36.4936
-36.6729
-36.8115
-36.9203
-37.0062
-37.0736
-37.1252
-37.1628
-37.1874
-37.1996
-34.492
-35.3007
-35.9192
-36.3498
-36.6418
-36.8425
-36.9862
-37.0939
-37.1776
-37.2438
-37.2962
-37.3367
-37.3665
-37.3862
-37.396
-34.6844
-35.7981
-36.4992
-36.894
-37.1158
-37.2479
-37.3354
-37.4002
-37.4519
-37.4947
-37.5301
-37.5585
-37.58
-37.5944
-37.6016
-35.0024
-36.7078
-37.3863
-37.6114
-37.6781
-37.6973
-37.7073
-37.7194
-37.735
-37.7527
-37.7705
-37.7867
-37.7999
-37.8093
-37.8141
-36.0351
-38.6432
-38.726
-38.4873
-38.2866
-38.1552
-38.0771
-38.035
-38.0157
-38.0101
-38.0121
-38.0174
-38.0233
-38.0282
-38.0308
-52.1583
-52.1718
-52.1995
-52.2426
-52.3034
-52.3854
-52.4941
-52.6381
-52.8324
-53.104
-53.5073
-54.1696
-55.4474
-58.5669
-68.5958
-52.2793
-52.2956
-52.3289
-52.381
-52.4546
-52.554
-52.686
-52.8615
-53.0988
-53.4305
-53.9195
-54.699
-56.0784
-58.8322
-64.9174
-52.3892
-52.4077
-52.4457
-52.5048
-52.5881
-52.7001
-52.8479
-53.0421
-53.2997
-53.6478
-54.1303
-54.8124
-55.755
-56.7842
-56.0977
-52.4864
-52.5066
-52.5479
-52.612
-52.7018
-52.8216
-52.9776
-53.1787
-53.4378
-53.7722
-54.203
-54.7453
-55.3716
-55.9277
-56.1624
-52.5699
-52.5912
-52.6346
-52.7016
-52.7949
-52.918
-53.076
-53.2752
-53.5237
-53.8299
-54.1988
-54.62
-55.0372
-55.2947
-55.025
-52.6388
-52.6606
-52.705
-52.7733
-52.8675
-52.9905
-53.1457
-53.3374
-53.5695
-53.8444
-54.1592
-54.4974
-54.8138
-55.0284
-55.059
-52.6927
-52.7147
-52.7592
-52.8272
-52.9204
-53.0406
-53.1903
-53.3715
-53.5855
-53.8316
-54.1043
-54.39
-54.6611
-54.8901
-55.1113
-52.7316
-52.7534
-52.7972
-52.8639
-52.9546
-53.0706
-53.213
-53.3827
-53.5793
-53.8006
-54.0415
-54.2926
-54.5377
-54.7578
-54.8825
-52.7557
-52.7769
-52.8196
-52.8842
-52.9716
-53.0822
-53.2168
-53.375
-53.5558
-53.7564
-53.9727
-54.1994
-54.4315
-54.6923
-55.1688
-52.7653
-52.7858
-52.8269
-52.8891
-52.9725
-53.0775
-53.2041
-53.3516
-53.5184
-53.7017
-53.8978
-54.1023
-54.3053
-54.4775
-54.4055
-52.7609
-52.7806
-52.82
-52.8793
-52.9587
-53.058
-53.177
-53.3148
-53.4694
-53.6383
-53.8183
-54.0063
-54.2005
-54.4329
-54.9667
-52.7431
-52.7618
-52.7994
-52.8559
-52.9311
-53.025
-53.137
-53.2661
-53.4104
-53.5675
-53.7343
-53.9059
-54.0691
-54.1794
-53.9455
-52.7124
-52.7303
-52.766
-52.8196
-52.8909
-52.9796
-53.0852
-53.2066
-53.3424
-53.4903
-53.6479
-53.8113
-53.9745
-54.1653
-54.7091
-52.6696
-52.6865
-52.7204
-52.7712
-52.8387
-52.9226
-53.0224
-53.1371
-53.2658
-53.4068
-53.5586
-53.7167
-53.8608
-53.9067
-53.4214
-52.6151
-52.6312
-52.6634
-52.7115
-52.7754
-52.8548
-52.9492
-53.058
-53.1804
-53.3161
-53.4658
-53.6319
-53.8152
-54.0173
-54.2199
-52.5497
-52.565
-52.5955
-52.6411
-52.7016
-52.7767
-52.8661
-52.9692
-53.0857
-53.2159
-53.3628
-53.535
-53.7566
-54.1282
-55.1563
-52.4739
-52.4884
-52.5173
-52.5605
-52.6178
-52.6889
-52.7735
-52.8711
-52.9812
-53.1044
-53.2431
-53.4039
-53.5938
-53.7836
-53.5159
-52.3883
-52.402
-52.4293
-52.4703
-52.5245
-52.5919
-52.6719
-52.7641
-52.8677
-52.9824
-53.1092
-53.2527
-53.431
-53.7572
-54.975
-52.2933
-52.3063
-52.3322
-52.371
-52.4224
-52.4863
-52.562
-52.649
-52.7463
-52.8522
-52.9645
-53.0772
-53.1654
-53.112
-52.1531
-52.1895
-52.2018
-52.2264
-52.2631
-52.3119
-52.3724
-52.4443
-52.5268
-52.6187
-52.7179
-52.8206
-52.9186
-52.9982
-53.096
-53.787
-52.0773
-52.089
-52.1123
-52.1471
-52.1934
-52.2509
-52.3192
-52.398
-52.486
-52.5815
-52.6808
-52.7728
-52.8182
-52.6685
-51.598
-51.9572
-51.9682
-51.9903
-52.0233
-52.0672
-52.1219
-52.1871
-52.2625
-52.3479
-52.4428
-52.5469
-52.6592
-52.7737
-52.8809
-52.9636
-51.8296
-51.84
-51.8609
-51.8922
-51.9338
-51.9857
-52.0478
-52.1201
-52.2031
-52.2979
-52.4084
-52.5441
-52.7341
-53.1109
-54.3843
-51.6949
-51.7048
-51.7245
-51.7541
-51.7934
-51.8425
-51.9014
-51.9703
-52.0499
-52.1425
-52.253
-52.3912
-52.5647
-52.7186
-52.2021
-51.5535
-51.5628
-51.5814
-51.6093
-51.6464
-51.6926
-51.7481
-51.8128
-51.8877
-51.9747
-52.0793
-52.2139
-52.4089
-52.7924
-54.144
-51.4057
-51.4145
-51.432
-51.4583
-51.4932
-51.5365
-51.5883
-51.6483
-51.7169
-51.7949
-51.8855
-51.9945
-52.1223
-52.1941
-51.4308
-51.252
-51.2603
-51.2768
-51.3015
-51.3342
-51.3747
-51.4228
-51.4779
-51.5394
-51.6067
-51.6798
-51.7619
-51.8745
-52.1761
-53.7774
-51.0927
-51.1005
-51.116
-51.1392
-51.1699
-51.2078
-51.2524
-51.3029
-51.3578
-51.4146
-51.4685
-51.5082
-51.4954
-51.2559
-49.6803
-50.9281
-50.9354
-50.95
-50.9719
-51.0007
-51.0362
-51.0779
-51.1247
-51.1748
-51.2247
-51.2678
-51.2908
-51.2737
-51.2638
-52.0414
-50.7585
-50.7654
-50.7792
-50.7998
-50.827
-50.8605
-50.8999
-50.9442
-50.9918
-51.0398
-51.0817
-51.1012
-51.0468
-50.7252
-49.1911
-50.5842
-50.5907
-50.6038
-50.6233
-50.649
-50.6808
-50.7184
-50.7612
-50.8085
-50.8592
-50.9117
-50.9629
-51.0055
-51.0289
-51.0239
-50.4054
-50.4116
-50.424
-50.4425
-50.4669
-50.4973
-50.5333
-50.5751
-50.6228
-50.6775
-50.7431
-50.8306
-50.9775
-51.3525
-52.852
-50.2225
-50.2283
-50.2401
-50.2576
-50.2808
-50.3098
-50.3443
-50.3848
-50.4321
-50.4885
-50.5598
-50.6571
-50.791
-50.8954
-50.1759
-50.0355
-50.0411
-50.0522
-50.0688
-50.0909
-50.1184
-50.1512
-50.1898
-50.2349
-50.2892
-50.3588
-50.4583
-50.6248
-51.0107
-52.5433
-49.8447
-49.85
-49.8606
-49.8764
-49.8973
-49.9233
-49.9542
-49.9901
-50.0314
-50.0793
-50.1376
-50.2127
-50.3063
-50.3299
-49.3677
-49.6503
-49.6553
-49.6654
-49.6805
-49.7003
-49.7248
-49.7537
-49.7866
-49.8231
-49.8625
-49.905
-49.9544
-50.0363
-50.3339
-52.1294
-49.4524
-49.4572
-49.4669
-49.4812
-49.5001
-49.5234
-49.5505
-49.5807
-49.6126
-49.6435
-49.6681
-49.6733
-49.6165
-49.2979
-47.445
-49.2512
-49.2559
-49.2651
-49.2789
-49.297
-49.3192
-49.345
-49.3735
-49.4027
-49.4291
-49.445
-49.4353
-49.3783
-49.3276
-50.1655
-49.0468
-49.0513
-49.0602
-49.0736
-49.0911
-49.1126
-49.1378
-49.1657
-49.1948
-49.222
-49.2399
-49.2302
-49.1357
-48.7402
-46.9834
-48.8393
-48.8437
-48.8524
-48.8653
-48.8824
-48.9036
-48.9285
-48.957
-48.9882
-49.0213
-49.0544
-49.0838
-49.1021
-49.0983
-49.0651
-48.6289
-48.6331
-48.6415
-48.6542
-48.671
-48.6919
-48.7169
-48.7462
-48.7804
-48.8207
-48.8715
-48.945
-49.0838
-49.4768
-51.1234
-48.4154
-48.4196
-48.4278
-48.4402
-48.4567
-48.4773
-48.5023
-48.5322
-48.5681
-48.6129
-48.6731
-48.7609
-48.8889
-48.9849
-48.1684
-48.1991
-48.2032
-48.2112
-48.2234
-48.2395
-48.2598
-48.2844
-48.3138
-48.3495
-48.3944
-48.4555
-48.5487
-48.7163
-49.1266
-50.8032
-47.98
-47.9839
-47.9918
-48.0037
-48.0195
-48.0392
-48.063
-48.0912
-48.1245
-48.1647
-48.2157
-48.2849
-48.375
-48.3891
-47.3182
-47.7581
-47.7619
-47.7697
-47.7813
-47.7966
-47.8158
-47.8386
-47.865
-47.8946
-47.9274
-47.9634
-48.0066
-48.0865
-48.405
-50.374
-47.5334
-47.5372
-47.5448
-47.5562
-47.5712
-47.5898
-47.6117
-47.6364
-47.6626
-47.6878
-47.706
-47.7028
-47.6321
-47.2747
-45.2297
-47.3061
-47.3098
-47.3173
-47.3284
-47.3432
-47.3615
-47.3829
-47.4068
-47.4314
-47.453
-47.4633
-47.4457
-47.3769
-47.3162
-48.2338
-47.0761
-47.0798
-47.0871
-47.0982
-47.1128
-47.1309
-47.1524
-47.1766
-47.2022
-47.226
-47.24
-47.224
-47.1161
-46.6784
-44.7445
-46.8435
-46.8471
-46.8544
-46.8653
-46.8798
-46.8981
-46.92
-46.9455
-46.9743
-47.0056
-47.0375
-47.0661
-47.0841
-47.0796
-47.0443
-46.6083
-46.6119
-46.619
-46.6298
-46.6443
-46.6626
-46.685
-46.712
-46.7446
-46.7847
-46.8371
-46.9154
-47.0676
-47.5022
-49.3206
-46.3706
-46.3741
-46.3811
-46.3917
-46.4059
-46.4242
-46.4468
-46.4747
-46.5096
-46.5552
-46.6186
-46.7134
-46.8549
-46.9637
-46.0681
-46.1303
-46.1337
-46.1405
-46.1508
-46.1648
-46.1827
-46.2049
-46.2325
-46.2673
-46.3131
-46.3778
-46.479
-46.6648
-47.1227
-48.9875
-45.8876
-45.8909
-45.8974
-45.9074
-45.9208
-45.938
-45.9593
-45.9853
-46.0174
-46.0579
-46.1113
-46.1858
-46.2858
-46.3044
-45.122
-45.6425
-45.6456
-45.6519
-45.6614
-45.6742
-45.6904
-45.7103
-45.734
-45.7617
-45.7935
-45.8297
-45.875
-45.9632
-46.3199
-48.5181
-45.3951
-45.398
-45.404
-45.4129
-45.425
-45.4403
-45.4586
-45.4799
-45.5031
-45.5258
-45.5415
-45.5343
-45.454
-45.0564
-42.7801
-45.1455
-45.1483
-45.1538
-45.1622
-45.1735
-45.1878
-45.2049
-45.2245
-45.245
-45.2628
-45.2687
-45.2444
-45.1651
-45.0974
-46.1252
-44.8938
-44.8964
-44.9015
-44.9093
-44.9199
-44.9333
-44.9495
-44.9684
-44.9889
-45.0077
-45.0165
-44.9925
-44.868
-44.3775
-42.2166
-44.6403
-44.6426
-44.6472
-44.6543
-44.6641
-44.6766
-44.6922
-44.7113
-44.7338
-44.7595
-44.7864
-44.8104
-44.8249
-44.8174
-44.7787
-44.3849
-44.3869
-44.3911
-44.3974
-44.4061
-44.4177
-44.4326
-44.4517
-44.4767
-44.5101
-44.5577
-44.6349
-44.797
-45.2788
-47.316
-44.128
-44.1297
-44.1332
-44.1386
-44.1461
-44.1563
-44.1699
-44.1882
-44.2137
-44.2507
-44.3078
-44.4005
-44.5471
-44.6596
-43.6486
-43.8697
-43.871
-43.8738
-43.878
-43.8841
-43.8925
-43.9039
-43.9198
-43.9426
-43.9772
-44.0324
-44.1286
-44.3208
-44.8204
-46.9031
-43.6103
-43.6112
-43.6131
-43.616
-43.6204
-43.6264
-43.6348
-43.6466
-43.6636
-43.6889
-43.7279
-43.79
-43.881
-43.8814
-42.5352
-43.35
-43.3505
-43.3514
-43.3529
-43.3552
-43.3585
-43.3632
-43.3698
-43.3788
-43.3909
-43.4066
-43.4313
-43.5041
-43.8771
-46.3063
-43.0893
-43.0892
-43.0891
-43.089
-43.0891
-43.0895
-43.0903
-43.0914
-43.0921
-43.09
-43.0782
-43.0393
-42.9185
-42.4446
-39.8784
-42.8284
-42.8278
-42.8266
-42.8248
-42.8226
-42.8201
-42.8171
-42.8133
-42.8074
-42.7955
-42.7678
-42.704
-42.5782
-42.4647
-43.5598
-42.5677
-42.5665
-42.5642
-42.5607
-42.5562
-42.5507
-42.5443
-42.5368
-42.527
-42.5117
-42.4815
-42.4117
-42.2293
-41.6451
-39.2312
-42.3075
-42.3058
-42.3023
-42.2971
-42.2902
-42.2819
-42.2724
-42.2618
-42.2505
-42.2378
-42.2218
-42.1976
-42.1594
-42.0955
-42.0029
-42.0484
-42.046
-42.0413
-42.0343
-42.025
-42.0138
-42.001
-41.9875
-41.9749
-41.966
-41.9666
-41.9933
-42.1073
-42.5655
-44.7135
-41.7906
-41.7876
-41.7817
-41.7728
-41.761
-41.7466
-41.7301
-41.7127
-41.6969
-41.6872
-41.6923
-41.7285
-41.816
-41.8615
-40.699
-41.5347
-41.5311
-41.5239
-41.513
-41.4985
-41.4806
-41.4597
-41.437
-41.4148
-41.3979
-41.3953
-41.4279
-41.5539
-41.996
-44.1005
-41.2809
-41.2767
-41.2683
-41.2555
-41.2382
-41.2165
-41.1905
-41.1609
-41.1292
-41.0981
-41.0728
-41.0624
-41.0724
-40.9756
-39.4611
-41.0299
-41.0251
-41.0154
-41.0007
-40.9807
-40.9551
-40.9237
-40.8864
-40.8432
-40.7939
-40.7388
-40.6827
-40.6649
-40.9391
-43.2792
-40.7818
-40.7765
-40.7658
-40.7494
-40.7268
-40.6976
-40.661
-40.6162
-40.5614
-40.4934
-40.4044
-40.2763
-40.0546
-39.4676
-36.7761
-40.5372
-40.5315
-40.5198
-40.5019
-40.4772
-40.4449
-40.404
-40.3529
-40.289
-40.2071
-40.096
-39.9347
-39.6981
-39.4568
-40.3576
-40.2963
-40.2902
-40.2779
-40.2589
-40.2326
-40.198
-40.154
-40.0987
-40.0293
-39.9406
-39.8211
-39.6454
-39.3449
-38.6524
-36.2441
-40.0593
-40.053
-40.0403
-40.0207
-39.9934
-39.9575
-39.9117
-39.8543
-39.7832
-39.6949
-39.5841
-39.4428
-39.2639
-39.0388
-38.7864
-39.8262
-39.82
-39.8072
-39.7875
-39.76
-39.7237
-39.6774
-39.6197
-39.549
-39.4645
-39.3669
-39.2664
-39.215
-39.4435
-41.1575
-39.5973
-39.5912
-39.5787
-39.5593
-39.5323
-39.4966
-39.451
-39.394
-39.3247
-39.2428
-39.1505
-39.0558
-38.9716
-38.8159
-37.6027
-39.3722
-39.3664
-39.3546
-39.3361
-39.3104
-39.2762
-39.2323
-39.1771
-39.1092
-39.0278
-38.9343
-38.8379
-38.7779
-38.9221
-40.3298
-39.1509
-39.1456
-39.1347
-39.1177
-39.094
-39.0624
-39.0214
-38.9692
-38.9032
-38.8208
-38.7188
-38.5948
-38.4424
-38.1501
-36.7197
-38.933
-38.9283
-38.9186
-38.9037
-38.8827
-38.8548
-38.8183
-38.7708
-38.7088
-38.6269
-38.517
-38.3714
-38.204
-38.168
-39.4392
-38.718
-38.714
-38.7059
-38.6934
-38.676
-38.6529
-38.6227
-38.5827
-38.5285
-38.4519
-38.3386
-38.1632
-37.8744
-37.2774
-35.2489
-38.5055
-38.5023
-38.4959
-38.4862
-38.4729
-38.4558
-38.4338
-38.4046
-38.3637
-38.302
-38.202
-38.0337
-37.7589
-37.3801
-37.4512
-38.295
-38.2925
-38.2878
-38.281
-38.2723
-38.2619
-38.2498
-38.2347
-38.2136
-38.1783
-38.1113
-37.9781
-37.7156
-37.1698
-35.7635
-38.0857
-38.084
-38.0808
-38.0767
-38.0724
-38.069
-38.0677
-38.0693
-38.0734
-38.0761
-38.065
-38.0124
-37.869
-37.5563
-37.0473
-37.8773
-37.8761
-37.8741
-37.8722
-37.8716
-37.8745
-37.8835
-37.9022
-37.9344
-37.983
-38.046
-38.1096
-38.1399
-38.0785
-37.9821
-37.6695
-37.6685
-37.6671
-37.6663
-37.6681
-37.6754
-37.6926
-37.7258
-37.7841
-37.8794
-38.0252
-38.23
-38.4746
-38.6242
-38.296
-37.4619
-37.4608
-37.4592
-37.4583
-37.4605
-37.4694
-37.4903
-37.5321
-37.6082
-37.7403
-37.9617
-38.3227
-38.8753
-39.501
-38.9449
-37.2548
-37.2531
-37.2504
-37.2479
-37.248
-37.2546
-37.2736
-37.3146
-37.3937
-37.5385
-37.7999
-38.2824
-39.2252
-41.1979
-45.5568
-37.0486
-37.0459
-37.041
-37.0352
-37.0307
-37.0309
-37.0414
-37.0708
-37.1337
-37.2553
-37.483
-37.9223
-38.8601
-41.237
-48.8555
-50.5861
-42.7313
-40.249
-39.2552
-38.7795
-38.5254
-38.3831
-38.3034
-38.2604
-38.2389
-38.23
-38.2278
-38.2287
-38.2304
-38.2315
-47.5667
-42.7161
-40.5999
-39.5936
-39.0723
-38.7836
-38.6178
-38.522
-38.4676
-38.438
-38.4231
-38.4166
-38.4145
-38.4143
-38.4145
-39.9326
-40.8013
-40.1805
-39.5949
-39.2024
-38.9559
-38.804
-38.712
-38.6576
-38.6267
-38.6101
-38.602
-38.5986
-38.5975
-38.5972
-39.6871
-39.9202
-39.7368
-39.4619
-39.2298
-39.0618
-38.9485
-38.8759
-38.8312
-38.8052
-38.7909
-38.7838
-38.7807
-38.7797
-38.7795
-39.2841
-39.3275
-39.3571
-39.2991
-39.2115
-39.1291
-39.065
-39.0204
-38.9919
-38.9752
-38.9664
-38.9624
-38.9611
-38.9611
-38.9612
-38.1385
-38.7437
-39.0383
-39.1565
-39.1882
-39.1832
-39.1679
-39.1538
-39.1444
-39.1395
-39.1382
-39.1388
-39.1404
-39.1419
-39.1428
-37.2938
-38.3749
-38.8424
-39.0739
-39.189
-39.2439
-39.2701
-39.2841
-39.2936
-39.3013
-39.3082
-39.3143
-39.3193
-39.3228
-39.3246
-38.3024
-38.4315
-38.8105
-39.072
-39.2304
-39.324
-39.3808
-39.4178
-39.4438
-39.4634
-39.4785
-39.4902
-39.4988
-39.5045
-39.5074
-36.6259
-38.3137
-38.8604
-39.1415
-39.3157
-39.4289
-39.5053
-39.5591
-39.5986