/*--------------------------------*- C++ -*----------------------------------*\
| =========                 |                                                 |
| \\      /  F ield         | OpenFOAM: The Open Source CFD Toolbox           |
|  \\    /   O peration     | Version:  5.x                                   |
|   \\  /    A nd           | Web:      www.OpenFOAM.org                      |
|    \\/     M anipulation  |                                                 |
\*---------------------------------------------------------------------------*/
FoamFile
{
    version     2.0;
    format      ascii;
    class       volScalarField;
    location    "4.4";
    object      gradTy;
}
// * * * * * * * * * * * * * * * * * * * * * * * * * * * * * * * * * * * * * //

dimensions      [0 -1 0 1 0 0 0];

internalField   nonuniform List<scalar> 
6300
(
32274.8
32224.4
32174.1
32123.8
32073.6
32023.4
31973.4
31923.5
31873.7
31824.1
31774.6
31725.4
31676.3
31627.5
31578.9
-0.0141129
-0.0424014
-0.0708654
-0.0995833
-0.128565
-0.157727
-0.186874
-0.215686
-0.243725
-0.270463
-0.295348
-0.317909
-0.337891
-0.355409
-0.371074
-0.0234439
-0.070462
-0.117826
-0.165686
-0.214085
-0.262909
-0.311845
-0.360356
-0.407679
-0.452862
-0.49487
-0.532762
-0.565941
-0.59446
-0.6193
-0.0326593
-0.0981815
-0.16428
-0.231232
-0.299159
-0.367953
-0.437212
-0.506184
-0.573737
-0.638397
-0.698466
-0.75228
-0.798604
-0.83715
-0.869112
-0.0416764
-0.125337
-0.209895
-0.295821
-0.383385
-0.472554
-0.562893
-0.653459
-0.742724
-0.828561
-0.908358
-0.97933
-1.03909
-1.08649
-1.1226
-0.0503722
-0.151576
-0.25412
-0.358752
-0.465984
-0.575963
-0.688323
-0.802009
-0.91511
-1.02474
-1.12705
-1.21756
-1.29189
-1.34708
-1.38328
-0.0586074
-0.176476
-0.296259
-0.419087
-0.54584
-0.676996
-0.81243
-0.951149
-1.09098
-1.22823
-1.35754
-1.47197
-1.56384
-1.62663
-1.65795
-0.0661928
-0.199465
-0.335363
-0.475508
-0.621304
-0.773764
-0.933269
-1.0992
-1.26942
-1.43968
-1.60292
-1.74893
-1.86485
-1.9376
-1.95882
-0.0728932
-0.219835
-0.370222
-0.526286
-0.690111
-0.863498
-1.04769
-1.24295
-1.44784
-1.65815
-1.86552
-2.05592
-2.20897
-2.30001
-2.30766
-0.0784393
-0.236758
-0.399408
-0.569303
-0.749362
-0.942427
-1.15105
-1.37709
-1.62082
-1.87953
-2.14503
-2.40017
-2.61498
-2.74564
-2.74346
-0.0825453
-0.249351
-0.42135
-0.602159
-0.795611
-1.00579
-1.23701
-1.49351
-1.7788
-2.09407
-2.43482
-2.78462
-3.105
-3.32392
-3.33687
-0.0849359
-0.256751
-0.434484
-0.622375
-0.82513
-1.04813
-1.29767
-1.58111
-1.90677
-2.28307
-2.71545
-3.19835
-3.69635
-4.10805
-4.22218
-0.0853831
-0.258234
-0.43746
-0.62773
-0.834402
-1.06393
-1.32443
-1.62646
-1.98406
-2.41588
-2.94545
-3.59686
-4.37391
-5.18976
-5.6804
-0.0837458
-0.253343
-0.429393
-0.616684
-0.820819
-1.04876
-1.30965
-1.61621
-1.98705
-2.45084
-3.05351
-3.86963
-5.01271
-6.59686
-8.3681
-0.0800034
-0.241999
-0.410089
-0.588799
-0.783437
-1.00063
-1.2492
-1.54164
-1.89701
-2.3468
-2.948
-3.81545
-5.21064
-7.81718
-13.7067
31534.6
31494.5
31454.6
31414.8
31375.3
31335.9
31296.8
31257.9
31219.2
31180.8
31142.7
31104.8
31067.3
31030.1
30993.3
30956.8
30920.7
30884.9
30849.5
30814.5
30779.9
30745.6
30711.8
30678.3
30645.1
30612.3
30579.9
30547.7
30515.9
30484.4
30453.1
30422.1
30391.4
30360.9
30330.7
30300.7
30270.9
30241.3
30211.9
30182.7
30153.7
30124.9
30096.3
30067.9
30039.7
30011.6
29983.8
29956.1
29928.6
29901.3
29874.1
29847.2
29820.3
29793.7
29767.1
29740.7
29714.5
29688.3
29662.2
29636.2
29610.2
29584.4
29558.5
29532.7
29507
29481.2
29455.5
29429.8
29404
29378.3
29352.5
29326.6
29300.8
29274.8
29248.8
29222.7
29196.6
29170.3
29144
29117.5
29090.9
29064.2
29037.3
29010.3
28983.1
28955.7
28928.2
28900.5
28872.7
28844.6
-0.384789
-0.397822
-0.412489
-0.429844
-0.450763
-0.475788
-0.505006
-0.538003
-0.573899
-0.61146
-0.649268
-0.685906
-0.720111
-0.750881
-0.777495
-0.799483
-0.816553
-0.828517
-0.835249
-0.836679
-0.832827
-0.823845
-0.810049
-0.791925
-0.770103
-0.745307
-0.718312
-0.6899
-0.660841
-0.631877
-0.603704
-0.576948
-0.552124
-0.529601
-0.50959
-0.492149
-0.477227
-0.464708
-0.454455
-0.446324
-0.440144
-0.435679
-0.432569
-0.430305
-0.428231
-0.425591
-0.421616
-0.415613
-0.40706
-0.395651
-0.381319
-0.364201
-0.344599
-0.322915
-0.29961
-0.275167
-0.250072
-0.224781
-0.199699
-0.175136
-0.151286
-0.128206
-0.105838
-0.0840469
-0.0626704
-0.0415677
-0.0206465
0.00013816
0.020807
0.0413881
0.0619391
0.0825475
0.103309
0.124293
0.145507
0.166888
0.188306
0.2096
0.230612
0.251205
0.271269
0.290684
0.309284
0.32681
0.342891
0.357056
0.36877
0.377499
0.38277
0.384225
-0.640547
-0.6606
-0.683397
-0.710954
-0.744982
-0.786567
-0.835937
-0.892345
-0.954145
-1.01902
-1.0843
-1.14739
-1.20601
-1.25846
-1.30359
-1.34072
-1.36949
-1.38965
-1.40099
-1.40335
-1.3967
-1.38123
-1.35747
-1.32628
-1.28876
-1.24621
-1.19998
-1.15141
-1.1018
-1.05242
-1.00448
-0.959073
-0.917116
-0.879251
-0.845807
-0.816828
-0.792147
-0.771508
-0.754658
-0.741385
-0.731477
-0.724614
-0.72025
-0.717528
-0.715276
-0.712106
-0.706581
-0.697414
-0.683643
-0.664742
-0.640633
-0.611628
-0.578314
-0.541438
-0.50182
-0.460307
-0.417744
-0.374946
-0.332639
-0.291391
-0.251537
-0.213153
-0.17608
-0.140009
-0.104596
-0.0695629
-0.0347572
-0.000140677
0.0342721
0.0684932
0.102618
0.136826
0.171334
0.206306
0.241779
0.27763
0.313596
0.349353
0.3846
0.419118
0.452763
0.48541
0.516843
0.546666
0.574244
0.598726
0.619123
0.634436
0.64379
0.646549
-0.895125
-0.919308
-0.94733
-0.982624
-1.02819
-1.08601
-1.1566
-1.23879
-1.32984
-1.42584
-1.52236
-1.61515
-1.70068
-1.77645
-1.84106
-1.89387
-1.93468
-1.96333
-1.97951
-1.98285
-1.97311
-1.95041
-1.91546
-1.86958
-1.81451
-1.75226
-1.68486
-1.61425
-1.54227
-1.47074
-1.40144
-1.33608
-1.27606
-1.22238
-1.17544
-1.13516
-1.10109
-1.0727
-1.04956
-1.03145
-1.01827
-1.0098
-1.00542
-1.00392
-1.00349
-1.00186
-0.996645
-0.985698
-0.967472
-0.941189
-0.906857
-0.865121
-0.817021
-0.763772
-0.706625
-0.646825
-0.585625
-0.524273
-0.463928
-0.405511
-0.349547
-0.29609
-0.244757
-0.194904
-0.145855
-0.0971138
-0.0484802
-1.19776e-05
0.0481257
0.0958487
0.143284
0.190782
0.238796
0.287701
0.337611
0.388306
0.439285
0.489936
0.539734
0.588378
0.635785
0.681967
0.726803
0.769831
0.810132
0.846352
0.876868
0.900028
0.91439
0.918915
-1.14905
-1.17261
-1.20093
-1.23965
-1.2939
-1.36722
-1.46073
-1.57267
-1.69859
-1.83211
-1.96603
-2.09362
-2.20962
-2.31079
-2.39578
-2.46459
-2.51769
-2.55525
-2.57683
-2.58153
-2.56851
-2.53757
-2.48957
-2.42646
-2.35097
-2.26612
-2.17476
-2.07946
-1.9825
-1.88625
-1.79317
-1.7058
-1.62633
-1.55623
-1.49594
-1.445
-1.40233
-1.36679
-1.33768
-1.31489
-1.29877
-1.28958
-1.28692
-1.28928
-1.29394
-1.2973
-1.29546
-1.28497
-1.26341
-1.22973
-1.18425
-1.12829
-1.06365
-0.992224
-0.915751
-0.835858
-0.75422
-0.672641
-0.592927
-0.516577
-0.444424
-0.376434
-0.311765
-0.249098
-0.187115
-0.124948
-0.0623943
0.000172922
0.0621662
0.123218
0.183472
0.243613
0.304607
0.367288
0.431966
0.498238
0.565122
0.631432
0.69623
0.759125
0.820293
0.880192
0.939106
0.99668
1.05166
1.10197
1.14499
1.17809
1.19899
1.20609
-1.40361
-1.419
-1.43946
-1.47424
-1.53207
-1.61931
-1.73826
-1.88635
-2.05635
-2.23774
-2.41875
-2.58871
-2.73988
-2.86835
-2.97373
-3.05788
-3.12302
-3.17014
-3.19842
-3.20569
-3.18966
-3.14925
-3.0854
-3.00114
-2.90088
-2.7893
-2.67034
-2.547
-2.42172
-2.29716
-2.17667
-2.06413
-1.96311
-1.87592
-1.80299
-1.74293
-1.69328
-1.65164
-1.6167
-1.58874
-1.56929
-1.55998
-1.56122
-1.57133
-1.58627
-1.60023
-1.60677
-1.60021
-1.57681
-1.5353
-1.47678
-1.40396
-1.32008
-1.22798
-1.12984
-1.02744
-0.922768
-0.818359
-0.71712
-0.621637
-0.533344
-0.452032
-0.375925
-0.30234
-0.228678
-0.153373
-0.0763613
0.00115214
0.0775326
0.151705
0.223798
0.295191
0.367962
0.443978
0.524001
0.607269
0.691767
0.775088
0.855448
0.932347
1.00661
1.07982
1.15332
1.22725
1.29993
1.36806
1.42739
1.47369
1.50344
1.51425
-1.6626
-1.65803
-1.6573
-1.67553
-1.72778
-1.82561
-1.97372
-2.16836
-2.39761
-2.6438
-2.88726
-3.11074
-3.30271
-3.45903
-3.58214
-3.67843
-3.75416
-3.81204
-3.85014
-3.86327
-3.8458
-3.79455
-3.71047
-3.5987
-3.46697
-3.32295
-3.17209
-3.0172
-2.85975
-2.70205
-2.54857
-2.40571
-2.27982
-2.17493
-2.09134
-2.0257
-1.97256
-1.92668
-1.88549
-1.85019
-1.82506
-1.81499
-1.82259
-1.84628
-1.87987
-1.91368
-1.93676
-1.93956
-1.91614
-1.8652
-1.78974
-1.69542
-1.58818
-1.47228
-1.3499
-1.22214
-1.09078
-0.959356
-0.832869
-0.71619
-0.612059
-0.51998
-0.4363
-0.355545
-0.272458
-0.184108
-0.0909053
0.0039072
0.0962219
0.183332
0.265275
0.344925
0.426785
0.515034
0.611496
0.714661
0.820235
0.923133
1.01978
1.10948
1.19457
1.27915
1.36706
1.4597
1.55485
1.64692
1.72867
1.79323
1.83525
1.85135
-1.93415
-1.89136
-1.84768
-1.82762
-1.85762
-1.9592
-2.14186
-2.4002
-2.71415
-3.05344
-3.3842
-3.67776
-3.91652
-4.09711
-4.22874
-4.32815
-4.41057
-4.48194
-4.53738
-4.56441
-4.55009
-4.4866
-4.37491
-4.22448
-4.05019
-3.8659
-3.67908
-3.49049
-3.29755
-3.10028
-2.9046
-2.72221
-2.56567
-2.44263
-2.35318
-2.28983
-2.24072
-2.19431
-2.14512
-2.0963
-2.05845
-2.04389
-2.06009
-2.10626
-2.17243
-2.2419
-2.29523
-2.31595
-2.29437
-2.22971
-2.12914
-2.00477
-1.86804
-1.7252
-1.57698
-1.42131
-1.2582
-1.09254
-0.9338
-0.791982
-0.672733
-0.575155
-0.49179
-0.411439
-0.323158
-0.22118
-0.107129
0.0108869
0.123023
0.223007
0.310652
0.392069
0.476985
0.57483
0.689888
0.819117
0.953076
1.08069
1.19459
1.29375
1.38375
1.47412
1.5744
1.68897
1.81461
1.94101
2.05507
2.14555
2.20469
2.2282
-2.23479
-2.12573
-2.00374
-1.90723
-1.88391
-1.9755
-2.20042
-2.55135
-2.99352
-3.4747
-3.93399
-4.32294
-4.6133
-4.80487
-4.92089
-5.00145
-5.08197
-5.17383
-5.26454
-5.32409
-5.32416
-5.24703
-5.09403
-4.8835
-4.64666
-4.4113
-4.1874
-3.96881
-3.74037
-3.49493
-3.24018
-3.00019
-2.80195
-2.66058
-2.57607
-2.53206
-2.50358
-2.4645
-2.40278
-2.32514
-2.25683
-2.22698
-2.25292
-2.3359
-2.4587
-2.59182
-2.69911
-2.7517
-2.73309
-2.64434
-2.50125
-2.33033
-2.15511
-1.98431
-1.81323
-1.62961
-1.42776
-1.21419
-1.00883
-0.833751
-0.700693
-0.608363
-0.541456
-0.477281
-0.392127
-0.274206
-0.127649
0.0277183
0.168686
0.281782
0.366308
0.435462
0.509833
0.61108
0.749082
0.917941
1.0962
1.25908
1.39171
1.49226
1.57338
1.65583
1.76212
1.90321
2.07415
2.25368
2.41622
2.54375
2.62614
2.65981
-2.5968
-2.3784
-2.12277
-1.88112
-1.74433
-1.7993
-2.07696
-2.57047
-3.21599
-3.92671
-4.58433
-5.10927
-5.45152
-5.62054
-5.66319
-5.67386
-5.73602
-5.86635
-6.03548
-6.16831
-6.20825
-6.11553
-5.8948
-5.57916
-5.23971
-4.93891
-4.68672
-4.45992
-4.20625
-3.90155
-3.55308
-3.21655
-2.95481
-2.79512
-2.73908
-2.75035
-2.78009
-2.76568
-2.68172
-2.53891
-2.39813
-2.32802
-2.36189
-2.50646
-2.72838
-2.97715
-3.18
-3.28818
-3.27101
-3.13544
-2.91166
-2.66026
-2.43403
-2.24203
-2.06572
-1.86237
-1.61241
-1.32224
-1.03848
-0.813239
-0.668251
-0.603221
-0.585458
-0.571618
-0.506576
-0.366784
-0.159187
0.0669255
0.256096
0.383276
0.445647
0.47287
0.505483
0.595883
0.765291
1.00466
1.26282
1.4824
1.63631
1.72
1.76232
1.80439
1.90087
2.07561
2.32237
2.59185
2.82876
3.00782
3.11858
3.16682
-3.08111
-2.68448
-2.2216
-1.70407
-1.32878
-1.30264
-1.64285
-2.37085
-3.34476
-4.45538
-5.42592
-6.15893
-6.53947
-6.61851
-6.45184
-6.27246
-6.29227
-6.50335
-6.85907
-7.14666
-7.28379
-7.16882
-6.8327
-6.30963
-5.77757
-5.39702
-5.15001
-4.99022
-4.74615
-4.37174
-3.84933
-3.32582
-2.96129
-2.78102
-2.80576
-2.94264
-3.12079
-3.16766
-3.04606
-2.75044
-2.43837
-2.28006
-2.31216
-2.56635
-2.96012
-3.42933
-3.79796
-4.00592
-3.9802
-3.7543
-3.36258
-2.95472
-2.66439
-2.47793
-2.35787
-2.16298
-1.8557
-1.42179
-0.98457
-0.677881
-0.521383
-0.530724
-0.624509
-0.74037
-0.729326
-0.557647
-0.218004
0.158726
0.432186
0.577516
0.57502
0.501959
0.41738
0.466414
0.680274
1.06387
1.48459
1.79988
1.98162
2.00691
1.95124
1.87422
1.92661
2.14395
2.53761
2.97662
3.32429
3.56995
3.70071
3.77649
-3.80183
-3.0861
-2.39943
-1.32272
-0.411247
-0.279545
-0.651576
-1.8185
-3.27816
-5.18731
-6.61124
-7.71791
-8.06352
-7.97231
-7.26098
-6.58651
-6.57546
-6.93454
-7.78332
-8.34431
-8.72511
-8.54343
-8.04278
-7.05609
-6.10045
-5.66611
-5.49104
-5.64527
-5.47723
-5.05857
-4.15079
-3.20988
-2.70626
-2.47555
-2.7149
-3.0795
-3.65461
-3.81637
-3.66517
-2.98995
-2.26155
-1.96234
-1.94706
-2.42975
-3.08776
-4.0309
-4.65192
-5.06477
-4.98234
-4.61666
-3.84147
-3.08464
-2.74992
-2.62295
-2.76251
-2.63013
-2.28605
-1.53079
-0.747352
-0.330867
-0.140285
-0.341181
-0.636272
-1.09632
-1.18778
-0.994716
-0.334479
0.395055
0.788698
0.980617
0.802058
0.543775
0.133095
0.0959203
0.347246
1.06618
1.8548
2.30641
2.54911
2.40734
2.16792
1.75481
1.71207
1.95571
2.68497
3.49046
3.96438
4.29526
4.35982
4.5284
-5.00343
-3.44626
-3.13922
-0.703224
1.62959
1.46943
1.48481
-0.844147
-2.56387
-6.61754
-8.253
-10.3723
-10.2161
-10.2185
-8.01643
-5.94456
-6.32502
-6.65993
-9.12137
-9.80084
-10.9757
-10.3766
-9.95197
-7.75703
-5.6718
-5.56097
-5.35707
-6.76356
-6.56837
-6.44886
-4.49903
-2.46324
-2.05725
-1.49222
-2.44274
-2.91225
-4.78269
-4.91473
-5.03787
-3.30497
-1.46559
-1.23465
-0.863804
-2.03959
-2.80374
-5.09522
-5.80454
-6.83571
-6.39121
-6.06756
-4.29278
-2.60558
-2.53512
-2.38302
-3.55757
-3.40097
-3.30732
-1.6792
0.0194092
0.342584
0.805697
-0.0148305
-0.409322
-1.98186
-2.05478
-2.10338
-0.549645
1.11612
1.43674
1.9183
1.145
0.806152
-0.687941
-0.688929
-0.65812
0.969109
2.71122
3.11469
3.67114
2.94934
2.63568
1.10295
1.08605
1.06899
2.72331
4.48244
4.8111
5.40481
4.86989
5.52411
-7.56162
-2.00603
-6.9446
0.0649743
7.26056
2.96604
6.99751
-0.746643
1.51179
-11.5296
-9.19749
-16.3031
-12.1395
-15.6387
-8.58377
-1.77064
-6.13952
-3.32243
-13.0248
-10.5433
-15.7801
-11.958
-14.4097
-8.29919
-2.3992
-5.58903
-2.90323
-10.1875
-7.54962
-10.4739
-4.97013
0.631242
-1.63629
1.67452
-2.86229
-0.726633
-8.41312
-6.02487
-9.08226
-3.77227
1.64758
-0.70736
2.44771
-2.24111
-0.319258
-8.43677
-6.49258
-10.7305
-7.62492
-9.60693
-4.61684
0.202744
-2.43671
-0.231542
-6.26832
-4.07999
-6.53707
-1.92797
2.76796
0.815676
3.60125
-0.300805
1.51516
-5.02564
-2.95568
-5.51821
-0.925029
3.77532
1.85414
4.66401
0.863426
2.73316
-3.65793
-1.51851
-3.96124
0.707609
5.49627
3.70364
6.63475
2.90459
4.85979
-1.73072
0.461128
-2.22363
2.61153
7.53508
5.27691
8.14031
3.6684
7.3176
-17.0633
14.5461
-27.955
0.565366
29.4372
-7.527
29.4669
-15.0532
27.6189
-38.5799
3.44798
-38.4622
-3.02913
-36.2576
-8.80351
18.5048
-16.3026
18.0425
-34.474
-0.172071
-33.6304
-4.50576
-31.1979
-8.53923
13.9618
-14.079
13.9065
-27.9002
-0.522459
-26.6367
-5.58289
15.0558
-9.24939
16.1406
-12.8915
15.6016
-26.5526
0.705333
-25.1771
-4.39924
15.955
-8.11597
17.0529
-11.9635
16.6204
-26.2687
1.72002
-25.2015
-1.53412
-23.1878
-4.69701
13.7504
-9.3162
13.7867
-20.8248
1.92873
-19.9437
-2.30337
15.0883
-5.53535
16.0254
-8.82231
15.4718
-20.4704
2.81266
-19.2387
-1.45619
15.968
-4.54256
16.9273
-7.58474
16.5543
-18.9131
4.24891
-17.5061
0.27243
17.7572
-2.51066
19.1895
-5.32808
19.3887
-17.2119
6.85759
-16.3457
2.37168
20.9286
-1.63305
21.4379
-9.22824
14.1316
28813.5
28779.4
28745
28710.3
28675.5
28640.4
28605.1
28569.6
28534
28498.2
28462.3
28426.4
28390.3
28354.2
28318.1
0.381412
0.372583
0.358329
0.339276
0.316238
0.290098
0.261711
0.231836
0.201091
0.169943
0.138711
0.107583
0.076642
0.0458919
0.0152801
0.641936
0.62688
0.602454
0.569821
0.530459
0.485951
0.437803
0.387328
0.335573
0.283312
0.231054
0.179088
0.127524
0.0763377
0.0254142
0.912486
0.890556
0.854793
0.807097
0.749826
0.685442
0.616226
0.544103
0.47057
0.396685
0.323113
0.250198
0.178032
0.106523
0.0354558
1.19785
1.16797
1.11898
1.05387
0.976232
0.889699
0.7975
0.70225
0.605891
0.509725
0.414506
0.320556
0.227884
0.136269
0.0453432
1.5041
1.46449
1.39927
1.31313
1.2115
1.09958
0.981785
0.861476
0.740999
0.621801
0.504612
0.389628
0.276675
0.165324
0.0549918
1.83894
1.78667
1.70051
1.58791
1.45703
1.3153
1.16853
1.02083
0.8748
0.731848
0.592497
0.45666
0.323856
0.193357
0.0642908
2.21271
2.14292
2.02835
1.88106
1.71348
1.53603
1.35614
1.17845
1.00548
0.83827
0.67685
0.520646
0.368724
0.219953
0.0731033
2.63983
2.54436
2.38924
2.19478
1.98004
1.75932
1.54153
1.33128
1.13035
0.938857
0.755961
0.580334
0.410431
0.244623
0.0812694
3.14117
3.00595
2.78994
2.52922
2.25305
1.98004
1.71954
1.47479
1.24574
1.0308
0.827766
0.634275
0.448026
0.266831
0.088616
3.74953
3.54815
3.23527
2.87915
2.52327
2.1887
1.88207
1.6027
1.34703
1.11082
0.889993
0.680948
0.480548
0.286047
0.0949743
4.52828
4.20059
3.7228
3.22779
2.77192
2.36961
2.01757
1.70704
1.42891
1.17544
0.940416
0.718952
0.507156
0.301824
0.100204
5.6352
5.00363
4.22807
3.53653
2.96652
2.50021
2.11168
1.77906
1.48618
1.22162
0.977262
0.747274
0.527287
0.313883
0.104223
7.49562
5.95073
4.65056
3.7239
3.05728
2.55308
2.14999
1.81138
1.51516
1.24758
0.999726
0.765577
0.540823
0.322192
0.107024
11.0944
6.65226
4.69928
3.65111
2.9856
2.50495
2.12393
1.80139
1.51553
1.25379
1.00847
0.774468
0.548223
0.327032
0.108702
-0.0748964
-0.22646
-0.383438
-0.549803
-0.730137
-0.930029
-1.1567
-1.42005
-1.73463
-2.12363
-2.62784
-3.3282
-4.4106
-6.37649
-10.8055
-0.0688944
-0.208176
-0.351999
-0.503615
-0.666632
-0.845202
-1.04426
-1.26978
-1.52904
-1.8305
-2.18165
-2.57805
-2.95297
-2.9471
-0.813702
-0.061857
-0.18674
-0.315152
-0.449516
-0.592332
-0.746151
-0.913419
-1.09602
-1.29408
-1.50281
-1.7041
-1.84296
-1.75964
-0.994836
1.72576
-0.054007
-0.162852
-0.274174
-0.389551
-0.510397
-0.637761
-0.771914
-0.911476
-1.05161
-1.18022
-1.27002
-1.26242
-1.03916
-0.401109
0.748189
-0.0455788
-0.137244
-0.230381
-0.325792
-0.423941
-0.52466
-0.626637
-0.726477
-0.817031
-0.884483
-0.903674
-0.831965
-0.606243
-0.162607
0.472969
-0.0367986
-0.110613
-0.185011
-0.260137
-0.335706
-0.410693
-0.482841
-0.54789
-0.598396
-0.62212
-0.600443
-0.508741
-0.32444
-0.0574389
0.161073
-0.0278676
-0.0835774
-0.139135
-0.194173
-0.247877
-0.298701
-0.343978
-0.379385
-0.398286
-0.391154
-0.345764
-0.24994
-0.0999761
0.0814183
0.224649
-0.0189534
-0.0566446
-0.0936154
-0.129131
-0.162042
-0.190559
-0.211971
-0.222336
-0.216214
-0.186654
-0.126023
-0.0287467
0.102715
0.246818
0.340087
-0.0101874
-0.0302076
-0.0490995
-0.0658885
-0.0792498
-0.0873415
-0.0876286
-0.0767351
-0.0503967
-0.00366516
0.0683383
0.168739
0.296677
0.447561
0.633025
-0.00166541
-0.00454832
-0.00603514
-0.00501492
-0.000102632
0.0104728
0.0289638
0.0581482
0.101271
0.161816
0.243029
0.347146
0.474748
0.62434
0.786091
0.0065483
0.0201484
0.0352987
0.053169
0.0751282
0.10281
0.138151
0.183367
0.240852
0.312976
0.401856
0.509291
0.637592
0.792725
0.995411
0.0144154
0.0437762
0.0747557
0.108528
0.146403
0.189851
0.240504
0.300088
0.370284
0.452526
0.547834
0.656995
0.781842
0.92814
1.1029
0.0219176
0.0662885
0.112286
0.161056
0.213827
0.271913
0.336682
0.409463
0.491371
0.583027
0.684233
0.793861
0.911233
1.04385
1.23846
0.0290507
0.0876799
0.147904
0.210824
0.277584
0.349361
0.427324
0.512529
0.605713
0.706924
0.814823
0.925408
1.03007
1.11656
1.20764
0.0358204
0.107972
0.181665
0.257945
0.337879
0.422541
0.512969
0.610083
0.714509
0.826205
0.943589
1.06113
1.16158
1.18614
0.895747
0.042238
0.127204
0.213644
0.30255
0.394919
0.491747
0.594003
0.702593
0.818285
0.941564
1.07229
1.20879
1.34582
1.47452
1.62631
0.0483183
0.145422
0.243927
0.344771
0.448889
0.557215
0.670676
0.790209
0.916824
1.05178
1.19704
1.35614
1.5359
1.74693
1.98114
0.0540774
0.162676
0.272602
0.384741
0.499968
0.619153
0.74317
0.872944
1.0096
1.15489
1.31221
1.48924
1.70435
2.00331
2.51029
0.0595321
0.179016
0.299759
0.42259
0.548328
0.677772
0.811706
0.950938
1.09643
1.24967
1.41374
1.59596
1.81463
2.11533
2.60803
0.0646983
0.194494
0.325482
0.458447
0.594148
0.733312
0.876606
1.02463
1.17791
1.33698
1.50273
1.67746
1.86803
2.09411
2.40018
0.0695913
0.209154
0.349852
0.492428
0.637597
0.786022
0.938266
1.09472
1.25541
1.4197
1.58555
1.74805
1.89681
2.01745
2.15488
0.0742242
0.223036
0.372937
0.524637
0.678822
0.836121
0.997053
1.1619
1.33045
1.50137
1.67077
1.82829
1.94518
1.92922
1.41433
0.0786083
0.236175
0.394792
0.555149
0.71792
0.883742
1.05317
1.22656
1.40388
1.58415
1.7643
1.93686
2.08585
2.18757
2.28062
0.0827531
0.248598
0.415459
0.584014
0.75494
0.928908
1.10657
1.28855
1.47531
1.66704
1.86319
2.06189
2.25942
2.45207
2.64166
0.0866669
0.260328
0.434972
0.611264
0.789886
0.971553
1.15704
1.34726
1.54335
1.74689
1.96036
2.18787
2.43647
2.71879
3.06593
0.0903581
0.271388
0.453363
0.636928
0.822759
1.01159
1.20429
1.40196
1.60625
1.8199
2.04786
2.2993
2.5902
2.94062
3.32971
0.0938359
0.281806
0.470673
0.661053
0.853591
1.049
1.24813
1.45211
1.66271
1.88302
2.11911
2.38346
2.70268
3.13574
3.8285
0.0971115
0.291614
0.486957
0.683712
0.882473
1.08388
1.28865
1.49773
1.71247
1.93525
2.17083
2.42966
2.73619
3.15066
3.83092
0.100198
0.300853
0.502285
0.705015
0.909566
1.11647
1.32625
1.53947
1.75669
1.97865
2.20649
2.44286
2.69485
2.98113
3.33166
0.10311
0.309567
0.516737
0.725088
0.935073
1.14711
1.36153
1.57848
1.79769
2.01801
2.23632
2.44536
2.62976
2.76715
2.91169
0.105861
0.317802
0.530395
0.744064
0.959204
1.17615
1.39511
1.61598
1.83798
2.05881
2.27268
2.46511
2.59738
2.54834
1.84469
0.108466
0.3256
0.543333
0.762055
0.982128
1.20386
1.42744
1.65276
1.87912
2.1045
2.32401
2.5268
2.69098
2.78426
2.85116
0.110937
0.332998
0.555612
0.779145
1.00395
1.23035
1.45861
1.68888
1.92101
2.15432
2.38702
2.61546
2.83387
3.03866
3.24399
0.113285
0.340026
0.56728
0.795393
1.02471
1.2556
1.48846
1.72376
1.96214
2.20462
2.45309
2.71123
2.98634
3.29282
3.66492
0.115519
0.346714
0.578381
0.810841
1.04444
1.27956
1.51669
1.75657
2.00047
2.25081
2.51251
2.79534
3.11715
3.50154
3.92931
0.11765
0.353092
0.588958
0.825541
1.06316
1.30217
1.54308
1.78667
2.03439
2.28918
2.55734
2.85253
3.20462
3.68032
4.44301
0.119689
0.359192
0.599066
0.839565
1.08095
1.32353
1.56767
1.81396
2.06346
2.31834
2.5835
2.87036
3.20635
3.65996
4.41396
0.121648
0.365051
0.60877
0.853013
1.09798
1.34387
1.59085
1.8391
2.08884
2.34042
2.5947
2.85424
3.12651
3.43117
3.79577
0.123539
0.370706
0.618139
0.866
1.11443
1.3635
1.61321
1.86328
2.11302
2.36068
2.60235
2.82945
3.02425
3.16092
3.29942
0.125373
0.376195
0.627239
0.878635
1.13048
1.38277
1.63537
1.88777
2.13869
2.38515
2.62022
2.82726
2.96243
2.88955
2.0785
0.127161
0.381547
0.636125
0.891005
1.14626
1.4019
1.65775
1.91335
2.16753
2.41759
2.65765
2.87516
3.04514
3.13097
3.18122
0.128908
0.386784
0.644832
0.903157
1.16184
1.42093
1.68038
1.94
2.19927
2.45703
2.71085
2.95623
3.18637
3.39725
3.60662
0.130621
0.391918
0.653376
0.915102
1.1772
1.43978
1.70296
1.96696
2.23213
2.49925
2.76999
3.04804
3.34109
3.66473
4.05605
0.132302
0.396957
0.661765
0.926831
1.19228
1.45827
1.72506
1.99318
2.26371
2.53901
2.82414
3.12958
3.4747
3.88536
4.34066
0.133954
0.401908
0.670004
0.938341
1.20704
1.47626
1.74631
2.0178
2.29204
2.57199
2.8643
3.18372
3.56291
4.07516
4.90016
0.135579
0.40678
0.678106
0.949643
1.22149
1.49375
1.76665
2.04058
2.31647
2.59647
2.88572
3.19651
3.55883
4.04795
4.86529
0.137181
0.411581
0.686091
0.960778
1.23569
1.51087
1.78633
2.06207
2.3381
2.6146
2.89228
3.1737
3.46681
3.793
4.1823
0.138763
0.416324
0.693985
0.971797
1.24977
1.52787
1.80589
2.08342
2.35948
2.63197
2.89636
3.14295
3.3519
3.49439
3.63582
0.140326
0.421014
0.701806
0.982745
1.26383
1.54497
1.82588
2.10587
2.3834
2.65502
2.91291
3.1385
3.28321
3.19668
2.29467
0.14187
0.425651
0.709553
0.993634
1.27791
1.5623
1.84657
2.1301
2.41148
2.68766
2.95198
3.19041
3.37516
3.46542
3.51425
0.14339
0.430222
0.717207
1.00443
1.29196
1.57979
1.86785
2.15588
2.44324
2.72858
3.00913
3.27978
3.5328
3.76311
3.98827
0.14488
0.434705
0.724725
1.01506
1.30585
1.59719
1.88924
2.1822
2.47647
2.77287
3.07323
3.38158
3.70631
4.06452
4.49756
0.14633
0.43907
0.73205
1.02543
1.3194
1.61416
1.91006
2.20768
2.50827
2.81446
3.13188
3.47213
3.8567
4.31411
4.82003
0.147731
0.443286
0.739125
1.03544
1.33245
1.63042
1.92975
2.23119
2.53626
2.84832
3.17477
3.53207
3.9566
4.5302
5.45413
0.149072
0.447323
0.745898
1.04501
1.34489
1.64579
1.94805
2.25224
2.55947
2.87224
3.19633
3.54547
3.9531
4.50319
5.42003
0.150343
0.451152
0.752325
1.05409
1.35668
1.66029
1.96509
2.27123
2.57889
2.88838
3.20059
3.51843
3.85078
4.22166
4.66545
0.151536
0.454746
0.758366
1.06265
1.36782
1.67402
1.98126
2.28925
2.59711
2.90268
3.20105
3.48147
3.72179
3.88967
4.05779
0.152638
0.458073
0.763974
1.07063
1.37829
1.68709
1.99697
2.30742
2.61698
2.92203
3.21408
3.47254
3.64316
3.55768
2.56167
0.153636
0.461091
0.769086
1.07796
1.38802
1.69948
2.01236
2.32628
2.64002
2.95047
3.25053
3.52478
3.74243
3.85814
3.93181
0.154514
0.46375
0.773613
1.08451
1.39684
1.71094
2.02708
2.34534
2.66541
2.98618
3.30497
3.61651
3.91255
4.18797
4.46263
0.155251
0.465991
0.77745
1.09011
1.40447
1.72104
2.0404
2.36321
2.69037
3.0233
3.36455
3.71914
4.09711
4.51846
5.031
0.155828
0.46775
0.780478
1.09457
1.41061
1.72928
2.05139
2.37812
2.71138
3.05468
3.41492
3.80568
4.25165
4.78576
5.38356
0.156224
0.468964
0.782588
1.09771
1.41499
1.73518
2.05925
2.38857
2.72548
3.07436
3.44419
3.85403
4.34508
5.00898
6.0692
0.156422
0.46958
0.783684
1.09939
1.41739
1.73845
2.06352
2.39382
2.73131
3.07954
3.44577
3.84613
4.31858
4.95715
6.01346
0.156408
0.469554
0.783694
1.09951
1.4177
1.73901
2.0642
2.39413
2.72975
3.07228
3.42372
3.78833
4.17679
4.61539
5.13623
0.15617
0.468852
0.782567
1.09802
1.4159
1.73691
2.06167
2.39056
2.72343
3.05888
3.39263
3.71411
4.00026
4.21666
4.44325
0.155697
0.467446
0.780262
1.09487
1.41198
1.73228
2.05632
2.38427
2.71538
3.04672
3.37015
3.66456
3.87221
3.81101
2.7677
0.154984
0.465314
0.77674
1.09001
1.40588
1.7251
2.04831
2.37584
2.70721
3.04007
3.36791
3.67542
3.93092
4.08749
4.21173
0.154023
0.462435
0.771961
1.08338
1.3975
1.7152
2.03736
2.3648
2.69805
3.03696
3.37985
3.72253
4.0584
4.38655
4.74178
0.15281
0.458796
0.765892
1.07489
1.38668
1.70225
2.0228
2.34977
2.68502
3.03111
3.39201
3.77452
4.19131
4.66691
5.25446
0.151349
0.454399
0.758523
1.06451
1.37327
1.6859
2.00384
2.32905
2.66449
3.01502
3.38921
3.8028
4.28348
4.86963
5.55173
0.149648
0.449267
0.74988
1.05223
1.3572
1.66592
1.97988
2.30127
2.63353
2.98253
3.35913
3.7846
4.30247
5.00585
6.11208
0.147726
0.443458
0.74005
1.03816
1.33858
1.64233
1.9508
2.26599
2.59098
2.93093
3.29518
3.70234
4.19272
4.86245
5.97151
0.145614
0.437061
0.729186
1.02251
1.31768
1.61551
1.91711
2.22395
2.53809
2.86248
3.2015
3.5624
3.95848
4.41407
4.93672
0.143354
0.430205
0.717506
1.00561
1.29496
1.58612
1.87981
2.17687
2.47813
2.78391
3.09271
3.39814
3.68296
3.91922
4.1846
0.140997
0.423048
0.705285
0.987868
1.27101
1.55501
1.84021
2.12692
2.41506
2.70326
2.9863
3.2483
3.44118
3.40426
2.49186
0.138602
0.415771
0.692839
0.969758
1.24651
1.52311
1.79961
2.07601
2.35199
2.62621
2.89458
3.14658
3.35903
3.49734
3.62648
0.136235
0.408573
0.680513
0.951788
1.22213
1.49131
1.75912
2.02543
2.29017
2.55325
2.81426
3.0724
3.3284
3.59687
3.95408
0.133962
0.401659
0.668663
0.934482
1.1986
1.46049
1.7197
1.97597
2.22954
2.48174
2.73596
2.99981
3.28915
3.63485
4.08806
0.131851
0.395235
0.657648
0.918378
1.17664
1.43157
1.68235
1.9284
2.1699
2.40884
2.65101
2.9096
3.2108
3.59824
4.11568
0.129962
0.389493
0.647814
0.904008
1.157
1.40556
1.64832
1.88403
2.11207
2.33373
2.55468
2.78986
3.0726
3.47143
4.11991
0.128347
0.384597
0.639468
0.891873
1.14048
1.38361
1.61922
1.845
2.05869
2.25913
2.44852
2.63717
2.85382
3.17133
3.79927
0.127042
0.380665
0.632845
0.882392
1.12776
1.36689
1.59698
1.81438
2.01452
2.19224
2.34289
2.46509
2.56502
2.65572
2.69414
0.126057
0.377741
0.628058
0.875822
1.1194
1.35645
1.58356
1.79577
1.98595
2.14414
2.25707
2.30855
2.28267
2.17646
2.07125
0.125372
0.37577
0.625048
0.872166
1.11558
1.35293
1.5805
1.79246
1.9796
2.1275
2.21394
2.20578
2.05613
1.69658
0.965714
0.124928
0.374579
0.623542
0.871083
1.11599
1.35621
1.5883
1.80639
2.0005
2.15357
2.23652
2.20135
1.97538
1.4746
0.693915
0.124626
0.373868
0.623025
0.871831
1.11964
1.36515
1.60582
1.83698
2.04992
2.22833
2.34119
2.32947
2.08548
1.44703
0.378418
0.12433
0.373217
0.622753
0.873269
1.1249
1.37743
1.62995
1.88022
2.12334
2.34864
2.5324
2.61897
2.46955
1.7182
-0.618924
0.123878
0.372113
0.621799
0.873928
1.12954
1.38972
1.65563
1.92844
2.20915
2.49785
2.79116
3.07238
3.27159
3.09057
1.18847
0.123091
0.370002
0.619144
0.872163
1.13098
1.39802
1.67652
1.97119
2.28944
2.64391
3.0584
3.58285
4.33759
5.65785
8.6133
8.44942
5.34813
4.00786
3.26558
2.7641
2.37652
2.05044
1.76108
1.49531
1.24549
1.0068
0.775997
0.550692
0.329029
0.109451
0.562911
2.63629
2.87888
2.71848
2.47131
2.21096
1.9547
1.70591
1.46442
1.22921
0.999123
0.773084
0.550091
0.32922
0.109602
-1.32544
1.1959
2.02971
2.23161
2.18767
2.04259
1.85381
1.6457
1.42919
1.20937
0.988635
0.768056
0.548015
0.32854
0.109466
-0.149245
0.92739
1.61933
1.91549
1.97431
1.90459
1.76638
1.59134
1.39626
1.19017
0.978041
0.762652
0.545546
0.327581
0.10923
0.0720129
0.926018
1.48378
1.76421
1.85024
1.81419
1.70454
1.55092
1.37098
1.17516
0.969715
0.758441
0.543674
0.326891
0.10907
0.397686
1.13038
1.54083
1.748
1.81097
1.77494
1.67324
1.5288
1.35674
1.16684
0.965443
0.756658
0.543204
0.326923
0.109133
1.36435
1.55854
1.73908
1.832
1.84051
1.7813
1.67164
1.52588
1.35489
1.16652
0.966309
0.758125
0.544702
0.328007
0.109525
1.92478
1.99624
1.9982
1.97467
1.91713
1.82273
1.69512
1.54049
1.36513
1.17445
0.972722
0.763239
0.54848
0.330337
0.110313
2.94258
2.48227
2.27508
2.14103
2.01939
1.88725
1.73739
1.56952
1.38604
1.19006
0.984538
0.772032
0.554616
0.333979
0.111522
3.27509
2.79259
2.50122
2.29884
2.12901
1.96409
1.79218
1.60941
1.41565
1.21231
1.00123
0.784248
0.563
0.33889
0.113141
3.39955
2.97025
2.66561
2.43413
2.23525
2.0458
1.85455
1.65697
1.45196
1.23995
1.02204
0.799447
0.573383
0.344946
0.115132
3.43843
3.06139
2.77925
2.54685
2.335
2.1288
1.92133
1.70973
1.49314
1.27174
1.04612
0.817076
0.585428
0.351967
0.117439
3.40945
3.0867
2.85842
2.64538
2.43085
2.21271
1.99102
1.76597
1.53771
1.30647
1.0726
0.836535
0.598748
0.359735
0.119993
3.16156
3.04647
2.92705
2.74503
2.52927
2.29909
2.06308
1.82449
1.58439
1.34307
1.10065
0.857211
0.612933
0.368021
0.122718
2.2063
3.00932
3.0392
2.8682
2.63776