/*--------------------------------*- C++ -*----------------------------------*\
| =========                 |                                                 |
| \\      /  F ield         | OpenFOAM: The Open Source CFD Toolbox           |
|  \\    /   O peration     | Version:  5.x                                   |
|   \\  /    A nd           | Web:      www.OpenFOAM.org                      |
|    \\/     M anipulation  |                                                 |
\*---------------------------------------------------------------------------*/
FoamFile
{
    version     2.0;
    format      ascii;
    class       volScalarField;
    location    "4.4";
    object      T;
}
// * * * * * * * * * * * * * * * * * * * * * * * * * * * * * * * * * * * * * //

dimensions      [0 0 0 1 0 0 0];

internalField   nonuniform List<scalar> 
6300
(
322.748
322.245
321.741
321.238
320.736
320.235
319.734
319.235
318.738
318.241
317.747
317.255
316.764
316.276
315.79
322.748
322.244
321.741
321.238
320.735
320.234
319.733
319.234
318.736
318.24
317.745
317.253
316.762
316.274
315.788
322.748
322.244
321.74
321.236
320.734
320.232
319.731
319.231
318.733
318.236
317.741
317.248
316.758
316.269
315.783
322.748
322.243
321.738
321.234
320.731
320.228
319.727
319.227
318.728
318.231
317.735
317.242
316.751
316.262
315.776
322.747
322.242
321.736
321.232
320.728
320.224
319.722
319.221
318.721
318.223
317.727
317.233
316.742
316.252
315.766
322.747
322.24
321.734
321.228
320.723
320.219
319.716
319.214
318.713
318.214
317.717
317.222
316.73
316.24
315.753
322.746
322.239
321.731
321.225
320.718
320.213
319.708
319.205
318.703
318.203
317.705
317.209
316.716
316.225
315.738
322.746
322.237
321.728
321.22
320.712
320.205
319.699
319.195
318.691
318.189
317.69
317.193
316.699
316.208
315.72
322.745
322.235
321.725
321.215
320.706
320.197
319.689
319.183
318.678
318.174
317.673
317.174
316.678
316.187
315.699
322.744
322.232
321.721
321.21
320.699
320.188
319.678
319.17
318.662
318.156
317.653
317.152
316.655
316.162
315.674
322.743
322.23
321.717
321.204
320.691
320.178
319.666
319.155
318.645
318.136
317.63
317.126
316.626
316.132
315.644
322.742
322.227
321.712
321.197
320.683
320.168
319.654
319.14
318.627
318.114
317.604
317.096
316.592
316.095
315.607
322.742
322.225
321.708
321.191
320.674
320.157
319.64
319.124
318.607
318.091
317.575
317.062
316.552
316.05
315.559
322.741
322.222
321.704
321.185
320.666
320.147
319.627
319.107
318.587
318.066
317.545
317.024
316.505
315.991
315.493
322.74
322.22
321.699
321.179
320.658
320.136
319.614
319.091
318.567
318.042
317.514
316.985
316.452
315.918
315.392
315.347
314.946
314.547
314.149
313.754
313.361
312.969
312.58
312.194
311.81
311.429
311.051
310.676
310.304
309.935
309.571
309.209
308.852
308.498
308.148
307.802
307.459
307.12
306.785
306.454
306.126
305.801
305.48
305.161
304.846
304.533
304.223
303.916
303.611
303.309
303.008
302.71
302.414
302.121
301.829
301.539
301.251
300.965
300.68
300.398
300.118
299.839
299.562
299.287
299.014
298.743
298.473
298.205
297.938
297.672
297.408
297.145
296.883
296.622
296.362
296.103
295.844
295.586
295.328
295.07
294.812
294.555
294.298
294.04
293.782
293.524
293.266
293.007
292.748
292.488
292.227
291.965
291.703
291.439
291.174
290.908
290.641
290.372
290.102
289.83
289.556
289.281
289.004
288.725
288.445
315.345
314.944
314.544
314.147
313.751
313.357
312.966
312.577
312.19
311.806
311.425
311.046
310.671
310.299
309.93
309.565
309.204
308.846
308.492
308.142
307.796
307.454
307.115
306.78
306.449
306.121
305.796
305.475
305.157
304.842
304.529
304.219
303.912
303.608
303.305
303.005
302.707
302.411
302.117
301.826
301.536
301.248
300.962
300.678
300.395
300.115
299.836
299.56
299.285
299.012
298.74
298.47
298.202
297.936
297.67
297.407
297.144
296.882
296.621
296.361
296.102
295.843
295.585
295.327
295.07
294.812
294.555
294.298
294.04
293.783
293.525
293.267
293.008
292.749
292.489
292.228
291.966
291.704
291.44
291.176
290.91
290.643
290.374
290.104
289.832
289.559
289.284
289.007
288.728
288.447
315.34
314.938
314.539
314.141
313.745
313.351
312.959
312.57
312.182
311.798
311.416
311.037
310.661
310.289
309.92
309.555
309.193
308.835
308.481
308.131
307.785
307.443
307.104
306.769
306.438
306.111
305.787
305.466
305.148
304.833
304.521
304.212
303.905
303.601
303.298
302.999
302.701
302.405
302.111
301.82
301.53
301.242
300.956
300.672
300.39
300.109
299.831
299.554
299.279
299.006
298.735
298.466
298.198
297.931
297.666
297.403
297.14
296.879
296.618
296.359
296.1
295.841
295.584
295.326
295.069
294.812
294.555
294.298
294.04
293.783
293.526
293.268
293.009
292.75
292.491
292.23
291.969
291.707
291.444
291.179
290.913
290.646
290.378
290.108
289.837
289.563
289.288
289.012
288.733
288.452
315.332
314.93
314.53
314.132
313.736
313.342
312.949
312.559
312.171
311.786
311.403
311.023
310.647
310.274
309.904
309.538
309.177
308.818
308.464
308.114
307.768
307.426
307.088
306.754
306.423
306.096
305.772
305.452
305.135
304.82
304.509
304.2
303.894
303.59
303.288
302.989
302.691
302.396
302.102
301.811
301.521
301.233
300.947
300.663
300.381
300.101
299.822
299.546
299.271
298.998
298.727
298.458
298.191
297.925
297.66
297.397
297.135
296.874
296.615
296.355
296.097
295.839
295.581
295.324
295.067
294.811
294.554
294.298
294.041
293.784
293.527
293.269
293.011
292.753
292.494
292.234
291.973
291.711
291.448
291.184
290.919
290.652
290.384
290.115
289.844
289.571
289.296
289.019
288.741
288.46
315.322
314.92
314.52
314.121
313.724
313.329
312.936
312.545
312.156
311.769
311.385
311.005
310.627
310.253
309.883
309.517
309.154
308.796
308.442
308.092
307.746
307.404
307.066
306.732
306.402
306.076
305.753
305.433
305.117
304.804
304.493
304.185
303.879
303.576
303.275
302.976
302.679
302.384
302.09
301.799
301.51
301.222
300.936
300.652
300.369
300.089
299.811
299.534
299.26
298.987
298.717
298.448
298.181
297.916
297.652
297.39
297.129
296.868
296.609
296.351
296.093
295.836
295.579
295.322
295.066
294.81
294.554
294.298
294.041
293.785
293.528
293.271
293.014
292.756
292.497
292.238
291.978
291.717
291.454
291.191
290.926
290.66
290.393
290.124
289.853
289.58
289.306
289.03
288.751
288.471
315.309
314.907
314.506
314.108
313.71
313.314
312.92
312.528
312.137
311.749
311.364
310.981
310.603
310.228
309.856
309.489
309.126
308.767
308.413
308.063
307.717
307.375
307.038
306.705
306.376
306.051
305.729
305.41
305.095
304.783
304.473
304.166
303.861
303.559
303.258
302.96
302.663
302.369
302.076
301.785
301.495
301.208
300.922
300.637
300.355
300.075
299.796
299.52
299.246
298.974
298.704
298.436
298.17
297.905
297.642
297.381
297.12
296.861
296.603
296.345
296.088
295.831
295.575
295.319
295.064
294.808
294.553
294.298
294.042
293.786
293.531
293.274
293.017
292.76
292.502
292.244
291.984
291.724
291.462
291.199
290.935
290.67
290.403
290.135
289.865
289.593
289.319
289.043
288.765
288.484
315.294
314.891
314.491
314.092
313.694
313.297
312.901
312.507
312.115
311.725
311.337
310.953
310.572
310.196
309.824
309.456
309.092
308.733
308.378
308.027
307.682
307.341
307.004
306.672
306.344
306.02
305.7
305.383
305.069
304.758
304.45
304.144
303.84
303.539
303.239
302.941
302.645
302.351
302.058
301.767
301.478
301.191
300.905
300.62
300.338
300.057
299.779
299.502
299.228
298.957
298.687
298.42
298.155
297.892
297.63
297.369
297.11
296.852
296.595
296.338
296.082
295.826
295.571
295.316
295.061
294.807
294.552
294.298
294.043
293.788
293.533
293.277
293.021
292.765
292.508
292.25
291.992
291.732
291.471
291.21
290.946
290.682
290.416
290.148
289.879
289.608
289.335
289.059
288.781
288.501
315.276
314.874
314.473
314.074
313.676
313.278
312.881
312.484
312.089
311.696
311.306
310.919
310.537
310.158
309.785
309.416
309.051
308.691
308.336
307.985
307.64
307.299
306.964
306.633
306.307
305.984
305.665
305.35
305.038
304.729
304.422
304.118
303.816
303.515
303.217
302.919
302.624
302.33
302.038
301.748
301.459
301.171
300.885
300.6
300.317
300.036
299.757
299.481
299.207
298.936
298.668
298.402
298.138
297.876
297.615
297.356
297.098
296.842
296.586
296.331
296.076
295.821
295.566
295.312
295.058
294.805
294.551
294.298
294.044
293.79
293.536
293.281
293.026
292.77
292.514
292.258
292
291.742
291.482
291.222
290.959
290.695
290.43
290.164
289.896
289.626
289.353
289.079
288.801
288.521
315.255
314.854
314.454
314.055
313.657
313.258
312.859
312.459
312.06
311.663
311.269
310.879
310.494
310.114
309.739
309.369
309.004
308.643
308.287
307.936
307.591
307.251
306.917
306.588
306.263
305.943
305.626
305.313
305.003
304.696
304.391
304.089
303.789
303.49
303.192
302.895
302.6
302.307
302.015
301.725
301.437
301.15
300.863
300.578
300.294
300.012
299.733
299.456
299.182
298.912
298.645
298.38
298.118
297.857
297.598
297.341
297.085
296.83
296.576
296.322
296.069
295.815
295.561
295.308
295.055
294.802
294.55
294.298
294.045
293.793
293.539
293.285
293.031
292.776
292.522
292.267
292.011
291.754
291.495
291.235
290.974
290.711
290.447
290.182
289.915
289.647
289.376
289.102
288.825
288.546
315.231
314.831
314.433
314.036
313.638
313.238
312.837
312.433
312.029
311.627
311.227
310.833
310.444
310.062
309.686
309.316
308.949
308.588
308.231
307.879
307.533
307.195
306.862
306.535
306.214
305.896
305.582
305.271
304.963
304.659
304.357
304.058
303.76
303.462
303.165
302.869
302.574
302.281
301.99
301.701
301.414
301.127
300.84
300.554
300.268
299.985
299.704
299.426
299.153
298.883
298.618
298.355
298.095
297.836
297.579
297.324
297.07
296.818
296.566
296.314
296.062
295.809
295.556
295.303
295.05
294.799
294.549
294.298
294.047
293.796
293.543
293.29
293.036
292.783
292.529
292.276
292.022
291.767
291.51
291.251
290.991
290.729
290.466
290.202
289.937
289.671
289.402
289.13
288.854
288.575
315.203
314.806
314.411
314.018
313.622
313.222
312.817
312.408
311.996
311.585
311.178
310.777
310.385
310.002
309.626
309.256
308.889
308.526
308.166
307.813
307.467
307.129
306.799
306.476
306.158
305.844
305.532
305.224
304.919
304.618
304.32
304.025
303.73
303.434
303.137
302.84
302.545
302.251
301.962
301.675
301.389
301.103
300.816
300.528
300.24
299.953
299.669
299.39
299.117
298.849
298.587
298.327
298.069
297.812
297.557
297.304
297.053
296.804
296.555
296.306
296.055
295.803
295.55
295.296
295.045
294.795
294.547
294.299
294.051
293.8
293.548
293.295
293.041
292.788
292.537
292.287
292.036
291.783
291.528
291.27
291.009
290.747
290.485
290.223
289.962
289.698
289.432
289.162
288.888
288.609
315.169
314.777
314.389
314.002
313.611
313.212
312.804
312.386
311.962
311.537
311.119
310.71
310.313
309.93
309.557
309.19
308.824
308.458
308.093
307.736
307.388
307.051
306.725
306.409
306.098
305.788
305.479
305.171
304.868
304.571
304.28
303.991
303.701
303.407
303.109
302.81
302.511
302.217
301.929
301.646
301.365
301.081
300.794
300.502
300.209
299.916
299.628
299.346
299.073
298.808
298.551
298.296
298.041
297.786
297.532
297.28
297.033
296.789
296.546
296.3
296.051
295.798
295.543
295.288
295.036
294.788
294.544
294.301
294.056
293.807
293.555
293.3
293.044
292.792
292.543
292.297
292.052
291.803
291.55
291.292
291.03
290.766
290.504
290.245
289.988
289.73
289.468
289.201
288.928
288.65
315.127
314.744
314.363
313.991
313.614
313.216
312.804
312.371
311.931
311.481
311.046
310.623
310.224
309.842
309.481
309.124
308.757
308.387
308.011
307.646
307.292
306.958
306.638
306.335
306.036
305.731
305.422
305.111
304.809
304.517
304.237
303.961
303.676
303.384
303.083
302.779
302.471
302.175
301.888
301.615
301.344
301.064
300.777
300.479
300.178
299.872
299.576
299.289
299.017
298.757
298.51
298.265
298.014
297.76
297.502
297.251
297.007
296.773
296.54
296.3
296.053
295.796
295.537
295.274
295.021
294.775
294.54
294.307
294.066
293.82
293.564
293.306
293.044
292.79
292.544
292.308
292.073
291.829
291.579
291.318
291.053
290.782
290.519
290.262
290.015
289.768
289.511
289.248
288.975
288.7
315.069
314.709
314.326
313.988
313.644
313.242
312.833
312.369
311.911
311.405
310.954
310.502
310.109
309.725
309.397
309.071
308.697
308.324
307.911
307.54
307.168
306.844
306.526
306.254
305.985
305.677
305.371
305.036
304.737
304.442
304.19
303.942
303.659
303.377
303.06
302.752
302.416
302.119
301.828
301.58
301.335
301.056
300.777
300.462
300.153
299.814
299.511
299.209
298.945
298.687
298.465
298.244
297.991
297.739
297.461
297.212
296.967
296.756
296.547
296.307
296.067
295.798
295.535
295.248
294.995
294.746
294.533
294.324
294.085
293.846
293.578
293.316
293.031
292.778
292.53
292.317
292.106
291.866
291.623
291.35
291.082
290.788
290.526
290.266
290.042
289.82
289.564
289.309
289.025
288.761
314.976
314.704
314.225
313.992
313.759
313.276
312.944
312.356
311.961
311.251
310.862
310.297
309.981
309.529
309.309
309.088
308.635
308.32
307.75
307.435
306.976
306.719
306.35
306.169
305.988
305.619
305.364
304.907
304.658
304.307
304.138
303.973
303.643
303.418
303.025
302.764
302.303
302.055
301.707
301.539
301.377
301.05
300.826
300.435
300.172
299.703
299.446
299.074
298.865
298.565
298.417
298.269
297.965
297.755
297.376
297.169
296.876
296.735
296.596
296.316
296.125
295.79
295.567
295.174
294.962
294.665
294.522
294.383
294.103
293.913
293.581
293.36
292.971
292.76
292.465
292.322
292.183
291.904
291.712
291.376
291.15
290.748
290.529
290.218
290.067
289.919
289.617
289.411
289.048
288.846
288.134
287.793
287.449
287.102
286.754
286.403
286.05
285.695
285.339
284.982
284.623
284.263
283.903
283.542
283.181
288.137
287.795
287.451
287.105
286.756
286.405
286.052
285.697
285.34
284.983
284.624
284.264
283.903
283.542
283.181
288.142
287.8
287.456
287.109
286.76
286.409
286.055
285.7
285.343
284.985
284.626
284.265
283.904
283.543
283.181
288.15
287.808
287.463
287.116
286.766
286.414
286.06
285.705
285.347
284.988
284.628
284.267
283.906
283.544
283.181
288.16
287.818
287.473
287.125
286.775
286.422
286.067
285.711
285.353
284.993
284.632
284.27
283.908
283.545
283.182
288.173
287.831
287.486
287.137
286.786
286.432
286.076
285.719
285.359
284.999
284.637
284.274
283.91
283.546
283.182
288.19
287.847
287.501
287.152
286.799
286.444
286.087
285.728
285.367
285.005
284.642
284.278
283.913
283.548
283.183
288.21
287.867
287.52
287.169
286.815
286.458
286.1
285.739
285.377
285.013
284.649
284.283
283.917
283.55
283.183
288.234
287.89
287.542
287.189
286.833
286.475
286.114
285.752
285.387
285.022
284.656
284.289
283.921
283.553
283.184
288.263
287.918
287.567
287.213
286.855
286.494
286.131
285.766
285.399
285.032
284.664
284.295
283.925
283.555
283.185
288.297
287.95
287.597
287.24
286.878
286.515
286.149
285.781
285.412
285.043
284.672
284.301
283.93
283.558
283.186
288.338
287.989
287.632
287.27
286.905
286.537
286.168
285.798
285.426
285.054
284.681
284.308
283.935
283.561
283.187
288.388
288.034
287.672
287.304
286.934
286.562
286.189
285.815
285.441
285.066
284.691
284.316
283.94
283.564
283.188
288.451
288.089
287.717
287.341
286.964
286.587
286.21
285.833
285.456
285.079
284.701
284.323
283.945
283.567
283.189
288.538
288.153
287.765
287.379
286.995
286.613
286.232
285.851
285.471
285.091
284.711
284.331
283.951
283.57
283.19
322.739
322.218
321.696
321.174
320.651
320.128
319.603
319.078
318.55
318.021
317.488
316.951
316.405
315.842
315.234
322.739
322.216
321.693
321.169
320.645
320.12
319.594
319.066
318.537
318.004
317.468
316.926
316.374
315.804
315.198
322.738
322.214
321.69
321.165
320.64
320.113
319.586
319.057
318.525
317.991
317.452
316.908
316.356
315.793
315.22
322.738
322.213
321.687
321.162
320.635
320.108
319.579
319.048
318.515
317.979
317.44
316.895
316.345
315.788
315.226
322.737
322.211
321.685
321.159
320.631
320.103
319.573
319.041
318.507
317.971
317.431
316.887
316.338
315.786
315.233
322.737
322.21
321.684
321.156
320.628
320.099
319.568
319.036
318.502
317.965
317.425
316.881
316.335
315.785
315.234
322.737
322.21
321.682
321.154
320.626
320.096
319.565
319.032
318.497
317.96
317.421
316.878
316.333
315.785
315.235
322.736
322.209
321.681
321.153
320.624
320.094
319.563
319.03
318.495
317.958
317.419
316.877
316.333
315.787
315.238
322.736
322.209
321.681
321.152
320.623
320.093
319.561
319.028
318.494
317.957
317.419
316.878
316.335
315.789
315.241
322.736
322.208
321.68
321.152
320.623
320.093
319.561
319.028
318.494
317.958
317.42
316.88
316.338
315.794
315.248
322.736
322.209
321.681
321.152
320.623
320.093
319.562
319.029
318.496
317.96
317.423
316.884
316.343
315.8
315.254
322.736
322.209
321.681
321.153
320.624
320.094
319.563
319.031
318.498
317.963
317.427
316.889
316.349
315.807
315.265
322.736
322.209
321.682
321.154
320.625
320.096
319.566
319.034
318.502
317.968
317.432
316.895
316.356
315.815
315.272
322.737
322.21
321.683
321.156
320.628
320.099
319.569
319.038
318.506
317.973
317.438
316.902
316.364
315.825
315.286
322.737
322.211
321.684
321.157
320.63
320.102
319.573
319.043
318.512
317.979
317.446
316.91
316.373
315.834
315.293
322.737
322.212
321.686
321.16
320.633
320.106
319.578
319.048
318.518
317.987
317.454
316.92
316.383
315.844
315.301
322.738
322.213
321.688
321.163
320.637
320.11
319.583
319.055
318.525
317.995
317.463
316.93
316.395
315.858
315.32
322.738
322.214
321.69
321.166
320.641
320.115
319.589
319.062
318.534
318.004
317.474
316.942
316.409
315.873
315.334
322.739
322.216
321.692
321.169
320.645
320.12
319.595
319.069
318.542
318.014
317.485
316.955
316.424
315.892
315.361
322.739
322.217
321.695
321.173
320.65
320.126
319.602
319.077
318.552
318.025
317.497
316.969
316.439
315.909
315.377
322.74
322.219
321.698
321.177
320.655
320.133
319.61
319.086
318.562
318.037
317.51
316.983
316.455
315.927
315.401
322.74
322.221
321.701
321.181
320.66
320.139
319.618
319.096
318.573
318.049
317.524
316.998
316.471
315.942
315.413
322.741
322.223
321.704
321.185
320.666
320.147
319.627
319.106
318.584
318.062
317.538
317.013
316.487
315.959
315.425
322.742
322.225
321.707
321.19
320.672
320.154
319.636
319.116
318.596
318.075
317.553
317.03
316.505
315.979
315.451
322.742
322.227
321.711
321.195
320.679
320.162
319.645
319.127
318.609
318.089
317.569
317.048
316.525
316
315.469
322.743
322.229
321.715
321.2
320.686
320.17
319.655
319.139
318.622
318.104
317.586
317.067
316.546
316.024
315.502
322.744
322.231
321.719
321.206
320.693
320.179
319.665
319.151
318.635
318.12
317.603
317.086
316.568
316.049
315.525
322.745
322.234
321.723
321.211
320.7
320.188
319.676
319.163
318.65
318.136
317.621
317.106
316.591
316.076
315.566
322.745
322.236
321.727
321.217
320.707
320.197
319.686
319.175
318.664
318.152
317.64
317.127
316.614
316.101
315.588
322.746
322.239
321.731
321.223
320.715
320.206
319.698
319.188
318.679
318.169
317.658
317.147
316.636
316.126
315.621
322.747
322.241
321.735
321.229
320.723
320.216
319.709
319.202
318.694
318.186
317.677
317.167
316.658
316.147
315.637
322.748
322.244
321.74
321.235
320.731
320.226
319.721
319.215
318.709
318.203
317.696
317.188
316.679
316.169
315.652
322.749
322.247
321.744
321.242
320.739
320.236
319.733
319.229
318.725
318.221
317.716
317.21
316.702
316.194
315.684
322.75
322.249
321.749
321.248
320.748
320.247
319.745
319.244
318.741
318.239
317.736
317.232
316.727
316.219
315.706
322.751
322.252
321.754
321.255
320.756
320.257
319.758
319.258
318.758
318.257
317.756
317.255
316.752
316.249
315.746
322.752
322.255
321.759
321.262
320.765
320.268
319.771
319.273
318.775
318.276
317.778
317.278
316.778
316.278
315.772
322.753
322.258
321.764
321.269
320.774
320.279
319.784
319.288
318.792
318.296
317.799
317.302
316.806
316.31
315.82
322.754
322.261
321.769
321.276
320.783
320.29
319.797
319.303
318.809
318.315
317.821
317.326
316.832
316.339
315.845
322.755
322.264
321.774
321.283
320.792
320.301
319.81
319.319
318.827
318.335
317.842
317.35
316.858
316.367
315.883
322.756
322.267
321.779
321.29
320.802
320.313
319.824
319.334
318.844
318.354
317.864
317.373
316.882
316.391
315.9
322.757
322.271
321.784
321.298
320.811
320.324
319.837
319.35
318.862
318.374
317.886
317.397
316.907
316.415
315.918
322.758
322.274
321.79
321.305
320.821
320.336
319.851
319.366
318.881
318.395
317.908
317.421
316.933
316.443
315.953
322.759
322.277
321.795
321.313
320.83
320.348
319.865
319.382
318.899
318.415
317.931
317.446
316.96
316.472
315.978
322.76
322.28
321.8
321.32
320.84
320.36
319.88
319.399
318.918
318.436
317.954
317.472
316.989
316.505
316.021
322.761
322.284
321.806
321.328
320.85
320.372
319.894
319.416
318.937
318.458
317.978
317.498
317.018
316.537
316.05
322.762
322.287
321.812
321.336
320.86
320.385
319.909
319.432
318.956
318.479
318.002
317.525
317.048
316.572
316.103
322.763
322.29
321.817
321.344
320.871
320.397
319.923
319.45
318.975
318.501
318.026
317.552
317.077
316.604
316.131
322.765
322.294
321.823
321.352
320.881
320.41
319.938
319.467
318.995
318.523
318.05
317.578
317.106
316.636
316.172
322.766
322.297
321.829
321.36
320.892
320.423
319.954
319.484
319.015
318.545
318.075
317.604
317.133
316.662
316.192
322.767
322.301
321.835
321.368
320.902
320.436
319.969
319.502
319.035
318.567
318.099
317.63
317.161
316.689
316.211
322.768
322.304
321.841
321.377
320.913
320.449
319.984
319.52
319.055
318.59
318.124
317.657
317.189
316.72
316.25
322.769
322.308
321.847
321.385
320.924
320.462
320
319.538
319.075
318.612
318.149
317.685
317.22
316.752
316.277
322.771
322.312
321.853
321.394
320.935
320.475
320.016
319.556
319.096
318.636
318.175
317.714
317.251
316.788
316.325
322.772
322.315
321.859
321.402
320.946
320.489
320.032
319.575
319.117
318.659
318.201
317.743
317.284
316.824
316.357
322.773
322.319
321.865
321.411
320.957
320.502
320.048
319.593
319.138
318.683
318.228
317.772
317.317
316.863
316.416
322.774
322.323
321.871
321.42
320.968
320.516
320.064
319.612
319.16
318.707
318.255
317.802
317.35
316.899
316.448
322.776
322.327
321.878
321.429
320.979
320.53
320.081
319.631
319.181
318.731
318.281
317.831
317.381
316.934
316.494
322.777
322.33
321.884
321.437
320.991
320.544
320.097
319.65
319.203
318.756
318.308
317.86
317.412
316.963
316.515
322.778
322.334
321.89
321.446
321.002
320.558
320.114
319.67
319.225
318.78
318.335
317.889
317.442
316.993
316.537
322.779
322.338
321.897
321.455
321.014
320.572
320.131
319.689
319.247
318.805
318.362
317.919
317.474
317.028
316.581
322.781
322.342
321.903
321.464
321.026
320.587
320.148
319.709
319.269
318.83
318.39
317.949
317.507
317.063
316.611
322.782
322.346
321.91
321.474
321.037
320.601
320.165
319.728
319.292
318.855
318.418
317.981
317.542
317.103
316.665
322.783
322.35
321.916
321.483
321.049
320.616
320.182
319.748
319.315
318.881
318.447
318.013
317.578
317.143
316.701
322.785
322.354
321.923
321.492
321.061
320.63
320.199
319.768
319.337
318.906
318.476
318.045
317.615
317.187
316.766
322.786
322.358
321.929
321.501
321.073
320.645
320.216
319.788
319.36
318.932
318.504
318.077
317.65
317.225
316.801
322.787
322.361
321.936
321.51
321.085
320.659
320.234
319.808
319.383
318.958
318.533
318.108
317.684
317.263
316.851
322.788
322.365
321.942
321.519
321.096
320.674
320.251
319.828
319.406
318.983
318.561
318.139
317.717
317.295
316.875
322.79
322.369
321.949
321.528
321.108
320.688
320.268
319.848
319.428
319.008
318.589
318.169
317.749
317.327
316.898
322.791
322.373
321.955
321.538
321.12
320.702
320.285
319.868
319.451
319.034
318.617
318.2
317.782
317.364
316.945
322.792
322.377
321.962
321.547
321.131
320.717
320.302
319.887
319.473
319.059
318.645
318.231
317.817
317.4
316.977
322.794
322.381
321.968
321.555
321.143
320.731
320.319
319.907
319.495
319.084
318.673
318.263
317.852
317.441
317.033
322.795
322.385
321.974
321.564
321.154
320.745
320.335
319.926
319.517
319.109
318.702
318.295
317.888
317.481
317.069
322.796
322.388
321.981
321.573
321.166
320.758
320.352
319.945
319.539
319.134
318.729
318.326
317.924
317.525
317.135
322.797
322.392
321.987
321.582
321.177
320.772
320.368
319.964
319.561
319.158
318.757
318.356
317.958
317.562
317.169
322.799
322.396
321.993
321.59
321.188
320.785
320.384
319.982
319.582
319.182
318.783
318.385
317.99
317.598
317.217
322.8
322.399
321.999
321.598
321.198
320.798
320.399
320
319.602
319.205
318.808
318.413
318.019
317.628
317.238
322.801
322.403
322.004
321.606
321.209
320.811
320.414
320.018
319.622
319.227
318.833
318.439
318.047
317.655
317.258
322.802
322.406
322.01
321.614
321.219
320.824
320.429
320.035
319.641
319.248
318.856
318.465
318.075
317.686
317.299
322.803
322.409
322.016
321.622
321.229
320.836
320.444
320.051
319.66
319.269
318.879
318.491
318.103
317.715
317.324
322.804
322.413
322.021
321.63
321.239
320.848
320.458
320.068
319.678
319.29
318.902
318.515
318.13
317.746
317.367
322.805
322.416
322.027
321.638
321.249
320.86
320.472
320.084
319.696
319.309
318.924
318.539
318.156
317.775
317.393
322.806
322.419
322.032
321.645
321.258
320.872
320.485
320.099
319.714
319.329
318.945
318.562
318.181
317.804
317.436
322.807
322.422
322.037
321.653
321.268
320.883
320.499
320.114
319.73
319.347
318.964
318.583
318.204
317.828
317.456
322.809
322.426
322.043
321.66
321.277
320.894
320.512
320.129
319.747
319.365
318.984
318.603
318.224
317.849
317.481
322.81
322.429
322.048
321.667
321.286
320.906
320.525
320.144
319.764
319.383
319.002
318.622
318.242
317.864
317.491
322.811
322.432
322.053
321.674
321.296
320.917
320.538
320.159
319.78
319.401
319.02
318.64
318.258
317.877
317.497
322.812
322.435
322.058
321.682
321.305
320.928
320.551
320.174
319.797
319.419
319.039
318.658
318.275
317.889
317.502
322.813
322.438
322.063
321.689
321.314
320.94
320.565
320.19
319.814
319.438
319.059
318.678
318.293
317.901
317.503
322.814
322.441
322.069
321.696
321.324
320.951
320.579
320.206
319.832
319.458
319.082
318.702
318.316
317.917
317.492
322.815
322.444
322.074
321.703
321.333
320.963
320.593
320.222
319.851
319.479
319.106
318.73
318.348
317.952
317.523
288.661
288.216
287.807
287.411
287.022
286.636
286.251
285.868
285.485
285.103
284.72
284.338
283.956
283.573
283.191
288.69
288.248
287.835
287.436
287.044
286.655
286.268
285.882
285.497
285.113
284.729
284.345
283.96
283.576
283.192
288.671
288.26
287.855
287.456
287.063
286.672
286.284
285.896
285.51
285.123
284.737
284.351
283.965
283.579
283.193
288.668
288.268
287.869
287.473
287.08
286.689
286.299
285.91
285.521
285.133
284.745
284.357
283.969
283.582
283.194
288.668
288.275
287.882
287.488
287.096
286.704
286.313
285.923
285.533
285.143
284.753
284.364
283.974
283.584
283.195
288.669
288.283
287.894
287.503
287.111
286.719
286.327
285.936
285.544
285.153
284.761
284.37
283.979
283.587
283.196
288.675
288.294
287.907
287.517
287.126
286.734
286.341
285.948
285.555
285.162
284.769
284.376
283.983
283.59
283.197
288.692
288.309
287.923
287.533
287.142
286.749
286.355
285.961
285.567
285.172
284.777
284.383
283.988
283.593
283.198
288.707
288.328
287.941
287.55
287.158
286.764
286.369
285.974
285.578
285.182
284.786
284.389
283.992
283.595
283.198
288.741
288.351
287.961
287.569
287.175
286.78
286.384
285.987
285.59
285.192
284.794
284.395
283.997
283.598
283.199
288.762
288.374
287.982
287.589
287.193
286.797
286.399
286.001
285.602
285.202
284.802
284.402
284.002
283.601
283.2
288.797
288.4
288.005
287.61
287.212
286.814
286.415
286.015
285.614
285.213
284.811
284.409
284.006
283.604
283.201
288.819
288.425
288.029
287.631
287.232
286.832
286.431
286.029
285.627
285.223
284.82
284.416
284.011
283.607
283.202
288.854
288.452
288.053
287.654
287.253
286.851
286.448
286.044
285.64
285.234
284.829
284.423
284.016
283.61
283.203
288.872
288.476
288.078
287.677
287.274
286.871
286.466
286.06
285.653
285.246
284.838
284.43
284.022
283.613
283.204
288.891
288.502
288.104
287.701
287.297
286.891
286.484
286.076
285.667
285.257
284.848
284.437
284.027
283.616
283.205
288.934
288.534
288.132
287.727
287.32
286.912
286.502
286.092
285.681
285.269
284.857
284.445
284.032
283.619
283.206
288.965
288.568
288.163
287.755
287.345
286.934
286.522
286.109
285.696
285.282
284.867
284.453
284.038
283.623
283.208
289.025
288.608
288.196
287.783
287.37
286.956
286.542
286.126
285.71
285.294
284.878
284.461
284.043
283.626
283.209
289.059
288.645
288.229
287.813
287.396
286.979
286.562
286.144
285.726
285.307
284.888
284.469
284.049
283.63
283.21
289.111
288.683
288.262
287.842
287.422
287.002
286.582
286.162
285.741
285.32
284.899
284.477
284.055
283.633
283.211
289.14
288.717
288.293
287.871
287.448
287.026
286.603
286.18
285.757
285.333
284.909
284.485
284.061
283.637
283.212
289.185
288.751
288.325
287.899
287.474
287.049
286.624
286.198
285.773
285.346
284.92
284.494
284.067
283.64
283.213
289.206
288.781
288.355
287.928
287.501
287.073
286.645
286.217
285.789
285.36
284.931
284.502
284.073
283.644
283.215
289.228
288.811
288.385
287.957
287.527
287.097
286.666
286.236
285.805
285.373
284.942
284.511
284.079
283.648
283.216
289.276
288.848
288.418
287.986
287.554
287.121
286.688
286.255
285.821
285.387
284.953
284.519
284.085
283.651
283.217
289.31
288.884
288.452
288.017
287.581
287.146
286.71
286.273
285.837
285.401
284.965
284.528
284.092
283.655
283.218
289.372
288.926
288.487
288.048
287.609
287.17
286.731
286.292
285.854
285.415
284.976
284.537
284.098
283.659
283.22
289.407
288.964
288.521
288.078
287.636
287.194
286.753
286.311
285.87
285.429
284.987
284.546
284.104
283.662
283.221
289.459
289.003
288.554
288.108
287.663
287.219
286.775
286.33
285.886
285.442
284.998
284.554
284.11
283.666
283.222
289.488
289.037
288.586
288.138
287.69
287.243
286.796
286.349
285.903
285.456
285.01
284.563
284.116
283.67
283.223
289.53
289.07
288.617
288.166
287.716
287.267
286.817
286.368
285.919
285.47
285.021
284.572
284.123
283.674
283.225
289.551
289.099
288.647
288.194
287.742
287.29
286.839
286.387
285.935
285.484
285.032
284.581
284.129
283.677
283.226
289.572
289.128
288.676
288.222
287.768
287.314
286.86
286.406
285.952
285.498
285.043
284.589
284.135
283.681
283.227
289.616
289.161
288.706
288.251
287.794
287.338
286.881
286.424
285.968
285.511
285.055
284.598
284.142
283.685
283.228
289.646
289.195
288.738
288.279
287.82
287.361
286.902
286.443
285.984
285.525
285.066
284.607
284.148
283.689
283.23