/*--------------------------------*- C++ -*----------------------------------*\
| =========                 |                                                 |
| \\      /  F ield         | OpenFOAM: The Open Source CFD Toolbox           |
|  \\    /   O peration     | Version:  5.x                                   |
|   \\  /    A nd           | Web:      www.OpenFOAM.org                      |
|    \\/     M anipulation  |                                                 |
\*---------------------------------------------------------------------------*/
FoamFile
{
    version     2.0;
    format      ascii;
    class       volScalarField;
    location    "4.2";
    object      gradTx;
}
// * * * * * * * * * * * * * * * * * * * * * * * * * * * * * * * * * * * * * //

dimensions      [0 -1 0 1 0 0 0];

internalField   nonuniform List<scalar> 
6300
(
-49.7452
-49.7263
-49.6884
-49.6314
-49.5552
-49.4595
-49.3444
-49.21
-49.0567
-48.8852
-48.6966
-48.4922
-48.2736
-48.0424
-47.8001
-49.7644
-49.7456
-49.7078
-49.651
-49.5748
-49.4792
-49.364
-49.2292
-49.0752
-48.9027
-48.7127
-48.5067
-48.2865
-48.0539
-47.8108
-49.8027
-49.7841
-49.7466
-49.6901
-49.6143
-49.5188
-49.4034
-49.2679
-49.1126
-48.9379
-48.7451
-48.5358
-48.312
-48.0764
-47.8313
-49.86
-49.8416
-49.8047
-49.7489
-49.6737
-49.5787
-49.4631
-49.3268
-49.1695
-48.9917
-48.7944
-48.5795
-48.3498
-48.1087
-47.8598
-49.9359
-49.918
-49.882
-49.8273
-49.7534
-49.6592
-49.544
-49.4069
-49.2473
-49.0652
-48.8615
-48.6384
-48.3993
-48.1491
-47.8933
-50.03
-50.0128
-49.9782
-49.9254
-49.8535
-49.7612
-49.6471
-49.5097
-49.3478
-49.1606
-48.9485
-48.7136
-48.4603
-48.1953
-47.9274
-50.1415
-50.1254
-50.0928
-50.0428
-49.9742
-49.8852
-49.7738
-49.6375
-49.4739
-49.2812
-49.0586
-48.8077
-48.5333
-48.2448
-47.9556
-50.2693
-50.2547
-50.2251
-50.1792
-50.1157
-50.0321
-49.9256
-49.7927
-49.6295
-49.432
-49.1974
-48.9254
-48.6207
-48.2953
-47.9693
-50.4121
-50.3995
-50.3738
-50.3337
-50.2774
-50.2021
-50.1041
-49.9786
-49.8196
-49.6202
-49.3738
-49.0762
-48.7292
-48.3466
-47.9578
-50.5677
-50.5577
-50.5371
-50.5046
-50.4583
-50.3951
-50.3105
-50.1983
-50.0503
-49.8557
-49.6018
-49.2765
-48.8737
-48.4043
-47.9088
-50.7336
-50.7267
-50.7125
-50.6898
-50.6565
-50.6097
-50.5446
-50.4542
-50.328
-50.1507
-49.9015
-49.5545
-49.0851
-48.4881
-47.8114
-50.9066
-50.9035
-50.8968
-50.8857
-50.8686
-50.8429
-50.8044
-50.7462
-50.6569
-50.5179
-50.2992
-49.9551
-49.4243
-48.652
-47.6644
-51.0831
-51.084
-51.0858
-51.0879
-51.0895
-51.0892
-51.0842
-51.0695
-51.0358
-50.9651
-50.8227
-50.5425
-50.0052
-49.0315
-47.4963
-51.2588
-51.2641
-51.2747
-51.2908
-51.3126
-51.3404
-51.3739
-51.4121
-51.4519
-51.484
-51.4841
-51.3872
-51.0229
-49.9731
-47.4553
-51.4297
-51.4391
-51.4583
-51.4882
-51.5301
-51.5861
-51.659
-51.7534
-51.8758
-52.0352
-52.2428
-52.4995
-52.7264
-52.3834
-48.4338
-47.5693
-47.3515
-47.1261
-46.8919
-46.6473
-46.3905
-46.1193
-45.8318
-45.5264
-45.2018
-44.8578
-44.4946
-44.1132
-43.7152
-43.3027
-42.8781
-42.444
-42.0031
-41.5584
-41.1126
-40.6687
-40.2295
-39.7977
-39.3757
-38.9658
-38.5698
-38.189
-37.8245
-37.4768
-37.1461
-36.8322
-36.5344
-36.2518
-35.9834
-35.7279
-35.4838
-35.2497
-35.0243
-34.8062
-34.5943
-34.3874
-34.1843
-33.9844
-33.7868
-33.5914
-33.3981
-33.2075
-33.0203
-32.8376
-32.661
-32.4917
-32.3313
-32.1812
-32.0423
-31.9158
-31.8023
-31.7021
-31.6155
-31.5423
-31.4823
-31.4351
-31.4003
-31.3773
-31.3657
-31.3652
-31.3756
-31.3965
-31.4279
-31.4696
-31.5216
-31.5837
-31.6559
-31.7383
-31.831
-31.9341
-32.0476
-32.1716
-32.3062
-32.4512
-32.6065
-32.7719
-32.9471
-33.1317
-33.3252
-33.527
-33.7362
-33.9515
-34.1716
-34.3946
-34.6187
-47.5799
-47.363
-47.1391
-46.9071
-46.6653
-46.4115
-46.1431
-45.858
-45.5542
-45.2302
-44.8858
-44.5211
-44.1374
-43.7365
-43.3205
-42.8921
-42.454
-42.0091
-41.5602
-41.1102
-40.6622
-40.2192
-39.7838
-39.3587
-38.9462
-38.5481
-38.1659
-37.8006
-37.4527
-37.1223
-36.8092
-36.5126
-36.2317
-35.9652
-35.7116
-35.4695
-35.2374
-35.0139
-34.7976
-34.5873
-34.3819
-34.1801
-33.981
-33.7839
-33.5884
-33.3944
-33.2026
-33.0137
-32.8291
-32.6503
-32.479
-32.3166
-32.1648
-32.0246
-31.8971
-31.7829
-31.6825
-31.596
-31.5232
-31.4638
-31.4172
-31.383
-31.3606
-31.3496
-31.3494
-31.3601
-31.3812
-31.4128
-31.4546
-31.5067
-31.5688
-31.641
-31.7233
-31.8158
-31.9186
-32.0321
-32.1561
-32.2908
-32.436
-32.5916
-32.7574
-32.9331
-33.1185
-33.3129
-33.516
-33.7269
-33.9443
-34.1669
-34.3927
-34.6198
-47.6002
-47.3847
-47.1641
-46.9369
-46.7011
-46.4537
-46.1916
-45.9116
-45.6112
-45.2886
-44.9432
-44.5754
-44.1869
-43.7797
-43.3566
-42.9205
-42.4744
-42.0211
-41.5638
-41.1054
-40.6491
-40.1981
-39.7554
-39.3239
-38.9061
-38.5039
-38.1189
-37.7519
-37.4035
-37.0739
-36.7625
-36.4687
-36.1912
-35.9286
-35.6791
-35.4411
-35.213
-34.9933
-34.7806
-34.5737
-34.3712
-34.1721
-33.9749
-33.7788
-33.5832
-33.3879
-33.1935
-33.0011
-32.8123
-32.629
-32.4532
-32.2868
-32.1315
-31.9886
-31.8591
-31.7437
-31.6429
-31.5566
-31.4846
-31.4265
-31.3814
-31.3486
-31.3275
-31.3174
-31.318
-31.3291
-31.3506
-31.3825
-31.4247
-31.4769
-31.5391
-31.6111
-31.6931
-31.7852
-31.8877
-32.0009
-32.1249
-32.2598
-32.4054
-32.5617
-32.7282
-32.9049
-33.0915
-33.2878
-33.4934
-33.7075
-33.9292
-34.1568
-34.3885
-34.6219
-47.6277
-47.4144
-47.1989
-46.9796
-46.7538
-46.5174
-46.266
-45.995
-45.7006
-45.3802
-45.0331
-44.6601
-44.2634
-43.8461
-43.4117
-42.9637
-42.5053
-42.0395
-41.5693
-41.0979
-40.6287
-40.1653
-39.7113
-39.2698
-38.8438
-38.4354
-38.046
-37.6767
-37.3278
-36.9994
-36.691
-36.4016
-36.1296
-35.8733
-35.6303
-35.3987
-35.1767
-34.9627
-34.7554
-34.5537
-34.3561
-34.1613
-33.9675
-33.7733
-33.5776
-33.3802
-33.1816
-32.9833
-32.7876
-32.5969
-32.414
-32.2411
-32.0804
-31.9332
-31.8007
-31.6836
-31.5822
-31.4965
-31.4261
-31.3702
-31.3277
-31.2974
-31.2782
-31.2696
-31.2712
-31.2829
-31.3049
-31.3373
-31.3799
-31.4325
-31.4948
-31.5667
-31.648
-31.7393
-31.841
-31.9537
-32.0776
-32.2129
-32.3593
-32.5164
-32.6841
-32.862
-33.0502
-33.2488
-33.4579
-33.677
-33.9051
-34.1406
-34.3814
-34.6246
-47.6586
-47.4477
-47.2394
-47.0321
-46.822
-46.6033
-46.3691
-46.1125
-45.8276
-45.5107
-45.1608
-44.7794
-44.3701
-43.9376
-43.4869
-43.0222
-42.5471
-42.0645
-41.5769
-41.0877
-40.6004
-40.1194
-39.6492
-39.1939
-38.7566
-38.3398
-37.9448
-37.5723
-37.2228
-36.8964
-36.5923
-36.3095
-36.0459
-35.7989
-35.5654
-35.3429
-35.1291
-34.9226
-34.7225
-34.5279
-34.3374
-34.1491
-33.9608
-33.7699
-33.5747
-33.3742
-33.1693
-32.962
-32.7555
-32.5537
-32.3602
-32.178
-32.0097
-31.8567
-31.7201
-31.6006
-31.4987
-31.4143
-31.3466
-31.2945
-31.2562
-31.2298
-31.2136
-31.2069
-31.2095
-31.2216
-31.244
-31.277
-31.3205
-31.3739
-31.4366
-31.5081
-31.5884
-31.6781
-31.7783
-31.8899
-32.0136
-32.1495
-32.2972
-32.4558
-32.6247
-32.8038
-32.9934
-33.1944
-33.4075
-33.6328
-33.8697
-34.1164
-34.3702
-34.6276
-47.6866
-47.4774
-47.2788
-47.0891
-46.903
-46.7119
-46.5049
-46.2711
-46.0011
-45.6892
-45.3341
-44.9391
-44.5104
-44.0557
-43.5825
-43.0962
-42.6003
-42.0968
-41.5875
-41.0749
-40.5634
-40.0584
-39.5662
-39.0922
-38.6404
-38.2131
-37.8113
-37.4352
-37.0851
-36.7613
-36.4634
-36.1901
-35.9387
-35.7052
-35.4851
-35.2746
-35.0712
-34.8737
-34.682
-34.4963
-34.3155
-34.1373
-33.9579
-33.7731
-33.5793
-33.3749
-33.1606
-32.9395
-32.7169
-32.4986
-32.2899
-32.0951
-31.9168
-31.7564
-31.6148
-31.4924
-31.39
-31.3077
-31.2447
-31.1989
-31.1674
-31.1471
-31.1353
-31.1307
-31.1337
-31.1454
-31.1676
-31.2013
-31.2464
-31.3016
-31.3653
-31.4365
-31.5148
-31.6015
-31.6986
-31.8082
-31.9317
-32.069
-32.2189
-32.3798
-32.5502
-32.7299
-32.9199
-33.1222
-33.339
-33.5716
-33.8198
-34.0814
-34.3531
-34.6303
-47.7022
-47.4924
-47.3057
-47.1412
-46.9916
-46.8436
-46.6798
-46.4821
-46.2352
-45.9301
-45.5655
-45.1478
-44.6885
-44.2011
-43.6972
-43.1843
-42.6648
-42.138
-41.603
-41.061
-40.5172
-39.9795
-39.4573
-38.9588
-38.4891
-38.0501
-37.641
-37.261
-36.91
-36.5892
-36.2993
-36.0396
-35.806
-35.5923
-35.3912
-35.1965
-35.0049
-34.8164
-34.6332
-34.4577
-34.2901
-34.1273
-33.963
-33.7893
-33.5995
-33.3899
-33.1615
-32.9194
-32.6723
-32.4296
-32.1998
-31.9885
-31.7982
-31.6293
-31.4815
-31.3554
-31.2523
-31.1733
-31.1177
-31.0825
-31.0625
-31.052
-31.0463
-31.0435
-31.0449
-31.0539
-31.0745
-31.109
-31.1573
-31.2166
-31.2832
-31.3541
-31.4288
-31.5096
-31.6006
-31.7063
-31.8294
-31.9698
-32.1245
-32.2896
-32.4619
-32.6407
-32.8281
-33.0286
-33.2473
-33.4876
-33.7498
-34.0315
-34.3277
-34.6319
-47.691
-47.4744
-47.301
-47.1721
-47.0782
-46.9985
-46.9041
-46.7643
-46.5536
-46.2569
-45.8737
-45.4167
-44.9075
-44.3705
-43.8253
-43.2822
-42.7401
-42.1916
-41.6288
-41.0502
-40.4624
-39.8786
-39.3148
-38.7843
-38.2942
-37.8441
-37.4293
-37.0453
-36.6918
-36.3726
-36.0922
-35.8516
-35.6451
-35.4617
-35.2882
-35.1141
-34.9346
-34.7519
-34.5736
-34.4078
-34.2581
-34.1198
-33.9816
-33.8288
-33.6482
-33.4323
-33.1821
-32.9068
-32.6213
-32.3421
-32.0829
-31.8515
-31.6488
-31.4716
-31.317
-31.1852
-31.0798
-31.0049
-30.9612
-30.944
-30.9438
-30.9497
-30.9528
-30.9501
-30.9449
-30.9454
-30.9609
-30.9967
-31.0521
-31.1209
-31.1944
-31.266
-31.3338
-31.4025
-31.4809
-31.5789
-31.702
-31.8495
-32.0147
-32.1886
-32.364
-32.5386
-32.7169
-32.9084
-33.1241
-33.3713
-33.6515
-33.9603
-34.2901
-34.6314
-47.6314
-47.3945
-47.2326
-47.1529
-47.1447
-47.1748
-47.194
-47.1492
-46.9959
-46.7089
-46.2887
-45.7609
-45.1669
-44.5519
-43.951
-43.3789
-42.8253
-42.2658
-41.6778
-41.0531
-40.4021
-39.7494
-39.1245
-38.5519
-38.042
-37.5878
-37.1734
-36.786
-36.4246
-36.1005
-35.8282
-35.6147
-35.4512
-35.3169
-35.1865
-35.0398
-34.8689
-34.6811
-34.4961
-34.3352
-34.2096
-34.1123
-34.0215
-33.9085
-33.7477
-33.5242
-33.2389
-32.9089
-32.5613
-32.2258
-31.9262
-31.6733
-31.4625
-31.2813
-31.1196
-30.977
-30.8635
-30.7914
-30.7665
-30.781
-30.8164
-30.851
-30.8677
-30.8602
-30.8365
-30.8153
-30.8176
-30.8559
-30.9275
-31.0179
-31.1081
-31.1828
-31.2375
-31.2809
-31.3329
-31.4148
-31.5392
-31.7034
-31.892
-32.0852
-32.2667
-32.4308
-32.5862
-32.7532
-32.9549
-33.2071
-33.5114
-33.8586
-34.2353
-34.6279
-47.4919
-47.2071
-47.0459
-47.0308
-47.1563
-47.3671
-47.5763
-47.6906
-47.6313
-47.3528
-46.8588
-46.2007
-45.4572
-44.713
-44.0356
-43.4492
-42.9192
-42.3815
-41.7799
-41.094
-40.3448
-39.5804
-38.8591
-38.2295
-37.7098
-37.2745
-36.879
-36.4894
-36.1041
-35.7538
-35.4798
-35.3058
-35.2157
-35.1666
-35.1083
-35.0008
-34.8277
-34.6066
-34.384
-34.2119
-34.1205
-34.0958
-34.0933
-34.0572
-33.9378
-33.7049
-33.3603
-32.9364
-32.4838
-32.0577
-31.7022
-31.4343
-31.2336
-31.063
-30.8945
-30.7271
-30.5872
-30.5099
-30.5149
-30.5876
-30.6899
-30.778
-30.8171
-30.7935
-30.7241
-30.6511
-30.6223
-30.6667
-30.7757
-30.9151
-31.0437
-31.1283
-31.1568
-31.1469
-31.1415
-31.1891
-31.3188
-31.5216
-31.7625
-31.9983
-32.194
-32.3353
-32.4385
-32.5475
-32.7128
-32.9675
-33.309
-33.7141
-34.1572
-34.6203
-47.2264
-46.842
-46.6492
-46.7064
-47.0453
-47.5617
-48.0956
-48.4822
-48.5825
-48.3072
-47.6656
-46.7639
-45.7485
-44.7785
-43.9893
-43.4385
-43.0244
-42.5897
-42.0037
-41.2263
-40.3095
-39.3495
-38.4619
-37.7492
-37.2562
-36.9042
-36.5763
-36.1867
-35.7334
-35.2975
-34.9877
-34.8763
-34.9214
-35.0297
-35.1012
-35.0563
-34.8557
-34.5345
-34.1991
-33.9728
-33.9354
-34.0474
-34.2135
-34.326
-34.2912
-34.0468
-33.5958
-33.0052
-32.3684
-31.788
-31.3521
-31.0987
-30.9613
-30.8418
-30.6676
-30.4375
-30.2206
-30.1097
-30.166
-30.3513
-30.5838
-30.7755
-30.8564
-30.7929
-30.6167
-30.4229
-30.3214
-30.3845
-30.5798
-30.8278
-31.0423
-31.1544
-31.1314
-31.0059
-30.8734
-30.845
-30.9929
-31.2848
-31.6398
-31.969
-32.1995
-32.294
-32.2824
-32.2604
-32.3416
-32.6024
-33.0149
-33.5147
-34.0499
-34.6053
-46.7625
-46.2014
-45.8929
-45.9769
-46.679
-47.7313
-48.8274
-49.6862
-50.075
-49.7895
-48.8474
-47.4912
-45.9747
-44.5838
-43.6001
-43.2313
-43.1594
-43.016
-42.5036
-41.5599
-40.3365
-39.015
-37.8132
-36.9526
-36.5999
-36.4993
-36.3629
-35.9762
-35.338
-34.6598
-34.2101
-34.2219
-34.5361
-34.946
-35.2621
-35.3362
-35.0575
-34.4833
-33.8572
-33.4618
-33.5354
-33.9211
-34.4108
-34.8073
-34.9465
-34.6863
-34.0327
-33.1404
-32.1717
-31.3101
-30.7393
-30.5959
-30.6633
-30.6992
-30.5213
-30.1288
-29.7013
-29.4689
-29.6308
-30.0471
-30.5365
-30.9321
-31.1036
-30.954
-30.5348
-30.0613
-29.7834
-29.9117
-30.3075
-30.7886
-31.1878
-31.3748
-31.2532
-30.8745
-30.4553
-30.2464
-30.4596
-30.9565
-31.5542
-32.0813
-32.4006
-32.405
-32.1408
-31.8241
-31.7114
-32.0186
-32.5948
-33.2639
-33.9132
-34.5648
-45.9477
-45.1973
-44.572
-44.3579
-45.8093
-47.8383
-49.9015
-51.5675
-52.539
-52.2176
-50.6259
-48.45
-46.0205
-43.8036
-42.3257
-42.5972
-43.398
-43.974
-43.625
-42.2965
-40.5056
-38.5084
-36.6736
-35.4253
-35.581
-36.1463
-36.5102
-36.1283
-35.0005
-33.6935
-32.7686
-33.1325
-34.0136
-34.9977
-35.7719
-36.1244
-35.6852
-34.5072
-33.1833
-32.276
-32.686
-33.6455
-34.7428
-35.6592
-36.177
-35.8925
-34.8133
-33.3859
-31.8211
-30.4134
-29.5113
-29.7893
-30.411
-30.8642
-30.6839
-29.8705
-28.9011
-28.2599
-28.7295
-29.6372
-30.6241
-31.4112
-31.8128
-31.5033
-30.5306
-29.4175
-28.6602
-29.0534
-29.9119
-30.8669
-31.6385
-32.0394
-31.7444
-30.8013
-29.7336
-29.0396
-29.5171
-30.4827
-31.5696
-32.4922
-33.0548
-32.9021
-32.0742
-31.0936
-30.4758
-31.0468
-32.0406
-33.0411
-33.7727
-34.4042
-44.2196
-44.0132
-42.659
-40.3401
-44.1081
-47.8962
-51.5478
-54.4494
-56.8652
-56.4752
-53.246
-49.7744
-45.7605
-41.9593
-38.5324
-41.2012
-43.9607
-46.2646
-46.1571
-43.6993
-40.9718
-37.7684
-34.6897
-31.8764
-33.9727
-36.0835
-37.7319
-37.355
-34.9211
-32.1771
-29.4712
-31.2984
-33.343
-35.3518
-36.8891
-38.053
-37.3771
-34.7411
-31.9098
-29.1933
-31.0455
-33.1716
-35.3352
-37.0855
-38.5629
-38.2432
-36.0955
-33.8293
-31.2443
-28.7887
-26.5839
-28.4879
-30.4011
-31.9414
-31.7582
-29.8368
-27.6279
-25.4516
-27.1969
-29.1133
-30.9993
-32.4453
-33.5458
-33.0074
-30.7284
-28.2613
-25.8801
-27.5249
-29.3771
-31.2089
-32.6227
-33.7056
-33.1686
-30.9072
-28.4734
-26.1455
-27.8717
-29.8337
-31.8211
-33.4212
-34.7387
-34.3713
-32.227
-29.8404
-27.5282
-29.4661
-31.4762
-33.2051
-33.7759
-33.6387
-38.5444
-44.482
-42.1358
-27.5578
-42.3781
-48.1513
-54.2744
-58.031
-65.2324
-64.8219
-56.2155
-51.8801
-45.1946
-39.5766
-25.9617
-39.6751
-45.1799
-52.0278
-52.0743
-45.4912
-42.1235
-36.8493
-32.3241
-21.2582
-32.3438
-36.687
-41.8706
-41.544
-35.2886
-30.6061
-19.6467
-29.1518
-32.724
-36.3854
-38.5444
-42.631
-41.892
-35.2567
-30.4712
-19.5319
-29.0109
-32.6439
-36.523
-38.905
-43.5367
-43.2262
-37.5486
-34.7318
-30.4812
-26.8031
-17.7397
-27.1731
-30.9284
-35.5004
-35.3354
-30.2172
-26.3077
-16.996
-25.4179
-28.6328
-32.0077
-33.9768
-37.6383
-37.0179
-31.1966
-26.9811
-17.3022
-25.6972
-28.8716
-32.1524
-34.0831
-37.704
-37.0755
-31.2609
-27.0604
-17.413
-25.8861
-29.1476
-32.6299
-34.7568
-38.8481
-38.3988
-32.7283
-28.4798
-18.4598
-27.7807
-31.3163
-35.0361
-34.7978
-29.7088
-34.8637
-35.1263
-35.3802
-35.6221
-35.8492
-36.059
-36.2499
-36.4205
-36.5701
-36.6983
-36.805
-36.8901
-36.9538
-36.9961
-37.0173
-34.8683
-35.1345
-35.3917
-35.6365
-35.8659
-36.0775
-36.2696
-36.441
-36.5911
-36.7195
-36.8261
-36.9111
-36.9747
-37.0169
-37.038
-34.8774
-35.1511
-35.4152
-35.6659
-35.9
-36.1151
-36.3096
-36.4825
-36.6333
-36.7619
-36.8684
-36.9532
-37.0164
-37.0583
-37.0793
-34.8914
-35.1769
-35.4517
-35.7114
-35.9525
-36.1728
-36.3707
-36.5455
-36.6972
-36.8259
-36.9321
-37.0162
-37.0789
-37.1204
-37.1411
-34.9105
-35.2129
-35.5027
-35.7749
-36.0255
-36.2524
-36.4544
-36.6313
-36.7836
-36.912
-37.0173
-37.1004
-37.1621
-37.2028
-37.2231
-34.9354
-35.261
-35.5711
-35.8593
-36.1218
-36.3564
-36.5627
-36.7413
-36.8935
-37.0207
-37.1243
-37.2056
-37.2657
-37.3053
-37.3249
-34.9674
-35.3242
-35.6607
-35.9692
-36.2455
-36.4882
-36.6981
-36.8772
-37.0279
-37.1524
-37.2531
-37.3316
-37.3893
-37.4272
-37.446
-35.0085
-35.4071
-35.7778
-36.1109
-36.4022
-36.6523
-36.8639
-37.0411
-37.1878
-37.3077
-37.4036
-37.4778
-37.5322
-37.5678
-37.5854
-35.0623
-35.5176
-35.9322
-36.2939
-36.6
-36.8544
-37.0637
-37.2349
-37.3742
-37.4863
-37.5752
-37.6436
-37.6933
-37.7259
-37.7419
-35.1349
-35.6685
-36.1392
-36.5321
-36.8492
-37.1013
-37.3013
-37.4603
-37.587
-37.6877
-37.7668
-37.8274
-37.8713
-37.9
-37.9141
-35.2356
-35.882
-36.4238
-36.8458
-37.1632
-37.4004
-37.5797
-37.7177
-37.8255
-37.9103
-37.9766
-38.0272
-38.064
-38.0881
-38.1
-35.3769
-36.1995
-36.8275
-37.2632
-37.5569
-37.7572
-37.8994
-38.0051
-38.0867
-38.1508
-38.2014
-38.2404
-38.2691
-38.2879
-38.2973
-35.5758
-36.7107
-37.423
-37.8213
-38.0424
-38.1717
-38.2556
-38.3166
-38.3649
-38.4045
-38.4373
-38.4635
-38.4834
-38.4967
-38.5034
-35.9016
-37.6441
-38.3332
-38.5569
-38.6182
-38.6309
-38.6345
-38.6408
-38.6514
-38.6648
-38.6791
-38.6925
-38.7037
-38.7116
-38.7157
-36.9565
-39.6296
-39.708
-39.4552
-39.2412
-39.0983
-39.0107
-38.9606
-38.9348
-38.9238
-38.9213
-38.9232
-38.9267
-38.9299
-38.9317
-51.5779
-51.5908
-51.6172
-51.6585
-51.7169
-51.7959
-51.901
-52.0409
-52.2304
-52.4965
-52.8934
-53.5471
-54.8107
-57.8991
-67.8371
-51.7038
-51.7195
-51.7515
-51.8016
-51.8726
-51.9687
-52.0968
-52.2678
-52.4998
-52.8253
-53.3068
-54.0762
-55.4391
-58.1563
-64.1277
-51.8191
-51.837
-51.8735
-51.9305
-52.011
-52.1195
-52.263
-52.4523
-52.7042
-53.0457
-53.5206
-54.1938
-55.127
-56.1537
-55.5244
-51.9222
-51.9417
-51.9815
-52.0433
-52.1301
-52.2461
-52.3976
-52.5934
-52.8464
-53.1739
-53.597
-54.1312
-54.7501
-55.3011
-55.5198
-52.012
-52.0325
-52.0743
-52.139
-52.2291
-52.3482
-52.5013
-52.6949
-52.937
-53.2359
-53.5968
-54.0098
-54.4205
-54.6797
-54.4453
-52.0877
-52.1087
-52.1514
-52.2172
-52.3081
-52.4268
-52.577
-52.7627
-52.988
-53.2552
-53.5613
-53.8899
-54.1963
-54.4014
-54.4245
-52.1489
-52.1701
-52.2128
-52.2782
-52.3679
-52.4837
-52.6281
-52.803
-53.0099
-53.2477
-53.511
-53.7853
-54.0424
-54.2499
-54.4172
-52.1958
-52.2166
-52.2586
-52.3226
-52.4097
-52.521
-52.6579
-52.8211
-53.0102
-53.2229
-53.4538
-53.6927
-53.923
-54.1266
-54.2554
-52.2283
-52.2486
-52.2894
-52.3512
-52.4348
-52.5407
-52.6695
-52.8211
-52.9941
-53.1859
-53.3919
-53.6061
-53.8222
-54.0558
-54.4487
-52.247
-52.2665
-52.3057
-52.3649
-52.4445
-52.5447
-52.6654
-52.806
-52.9648
-53.1392
-53.3252
-53.5181
-53.709
-53.8747
-53.8488
-52.2522
-52.2709
-52.3084
-52.3647
-52.4401
-52.5345
-52.6474
-52.7781
-52.9247
-53.0846
-53.2547
-53.4316
-53.6134
-53.8271
-54.292
-52.2447
-52.2625
-52.2981
-52.3515
-52.4227
-52.5114
-52.6173
-52.7391
-52.8753
-53.0233
-53.1802
-53.3415
-53.4957
-53.6055
-53.4263
-52.225
-52.2419
-52.2756
-52.3261
-52.3932
-52.4767
-52.576
-52.6901
-52.8175
-52.9562
-53.1036
-53.2562
-53.4088
-53.585
-54.0632
-52.1938
-52.2098
-52.2416
-52.2892
-52.3525
-52.4311
-52.5245
-52.6318
-52.7518
-52.8832
-53.0242
-53.1709
-53.3055
-53.3552
-52.9461
-52.1517
-52.1667
-52.1968
-52.2418
-52.3014
-52.3754
-52.4633
-52.5645
-52.6781
-52.8037
-52.9418
-53.094
-53.2611
-53.4443
-53.6266
-52.0993
-52.1135
-52.1418
-52.1843
-52.2405
-52.3102
-52.3931
-52.4884
-52.5959
-52.7158
-52.8503
-53.0067
-53.2057
-53.5343
-54.4315
-52.0371
-52.0505
-52.0773
-52.1173
-52.1703
-52.236
-52.3141
-52.4039
-52.5051
-52.6179
-52.7443
-52.8897
-53.0601
-53.2299
-53.0013
-51.9658
-51.9785
-52.0037
-52.0415
-52.0915
-52.1534
-52.2269
-52.3114
-52.4062
-52.5108
-52.626
-52.7555
-52.9149
-53.2027
-54.2663
-51.8859
-51.8978
-51.9217
-51.9573
-52.0044
-52.0629
-52.1322
-52.2116
-52.3003
-52.3966
-52.4985
-52.6003
-52.6806
-52.6369
-51.8035
-51.7978
-51.8091
-51.8316
-51.8652
-51.9097
-51.965
-52.0304
-52.1054
-52.1889
-52.2788
-52.3716
-52.4601
-52.5323
-52.62
-53.2247
-51.702
-51.7126
-51.7339
-51.7656
-51.8077
-51.86
-51.922
-51.9933
-52.0729
-52.1592
-52.2485
-52.3313
-52.3731
-52.2443
-51.311
-51.5989
-51.609
-51.629
-51.659
-51.6988
-51.7483
-51.8072
-51.8753
-51.9523
-52.0375
-52.1308
-52.2308
-52.3325
-52.4276
-52.5006
-51.489
-51.4985
-51.5174
-51.5457
-51.5833
-51.6302
-51.6861
-51.7512
-51.8257
-51.9105
-52.0089
-52.129
-52.2963
-52.6265
-53.7393
-51.3726
-51.3815
-51.3994
-51.4261
-51.4615
-51.5058
-51.5587
-51.6205
-51.6918
-51.7744
-51.8725
-51.9945
-52.1471
-52.2822
-51.831
-51.2501
-51.2585
-51.2753
-51.3004
-51.3338
-51.3754
-51.4251
-51.4831
-51.55
-51.6275
-51.7202
-51.8388
-52.0099
-52.3453
-53.5262
-51.1218
-51.1297
-51.1455
-51.1691
-51.2005
-51.2394
-51.2858
-51.3395
-51.4007
-51.4702
-51.5505
-51.6465
-51.7587
-51.8215
-51.1539
-50.9882
-50.9956
-51.0104
-51.0326
-51.062
-51.0983
-51.1413
-51.1906
-51.2456
-51.3056
-51.3705
-51.4429
-51.5417
-51.8051
-53.203
-50.8494
-50.8564
-50.8704
-50.8912
-50.9187
-50.9527
-50.9926
-51.0377
-51.0869
-51.1376
-51.1857
-51.221
-51.2102
-51.0011
-49.6245
-50.7058
-50.7124
-50.7256
-50.7452
-50.7711
-50.8029
-50.8402
-50.8821
-50.9269
-50.9716
-51.0103
-51.031
-51.0165
-51.008
-51.6863
-50.5578
-50.564
-50.5764
-50.5949
-50.6193
-50.6494
-50.6846
-50.7243
-50.767
-50.81
-50.8477
-50.8655
-50.8186
-50.5382
-49.1989
-50.4054
-50.4113
-50.4231
-50.4406
-50.4637
-50.4923
-50.526
-50.5644
-50.6068
-50.6522
-50.6992
-50.7448
-50.7828
-50.804
-50.8001
-50.249
-50.2546
-50.2658
-50.2824
-50.3044
-50.3317
-50.3641
-50.4016
-50.4444
-50.4935
-50.5519
-50.6294
-50.7587
-51.0872
-52.398
-50.0888
-50.0941
-50.1047
-50.1205
-50.1415
-50.1676
-50.1987
-50.2351
-50.2776
-50.3282
-50.3918
-50.478
-50.5961
-50.6885
-50.0607
-49.9249
-49.9299
-49.94
-49.9551
-49.9751
-49.9999
-50.0296
-50.0644
-50.1051
-50.154
-50.2162
-50.3044
-50.4512
-50.79
-52.1319
-49.7575
-49.7623
-49.7719
-49.7863
-49.8053
-49.8289
-49.857
-49.8895
-49.927
-49.9705
-50.0229
-50.0899
-50.1731
-50.1951
-49.3542
-49.5867
-49.5913
-49.6006
-49.6143
-49.6324
-49.6548
-49.6812
-49.7113
-49.7446
-49.7807
-49.8196
-49.8642
-49.9374
-50.1993
-51.7729
-49.4127
-49.4172
-49.426
-49.4392
-49.4566
-49.4779
-49.5029
-49.5307
-49.5603
-49.5891
-49.6125
-49.6187
-49.5705
-49.2929
-47.6709
-49.2357
-49.24
-49.2485
-49.2613
-49.278
-49.2986
-49.3225
-49.3489
-49.3763
-49.4014
-49.4174
-49.4108
-49.3628
-49.3201
-50.0559
-49.0556
-49.0598
-49.0681
-49.0805
-49.0968
-49.1169
-49.1403
-49.1664
-49.1939
-49.22
-49.238
-49.2317
-49.1513
-48.8069
-47.2685
-48.8726
-48.8766
-48.8848
-48.8969
-48.913
-48.9328
-48.9562
-48.983
-49.0126
-49.044
-49.0756
-49.1041
-49.123
-49.1228
-49.0966
-48.6867
-48.6907
-48.6987
-48.7106
-48.7265
-48.7462
-48.7698
-48.7976
-48.8298
-48.8679
-48.9154
-48.9829
-49.1081
-49.4569
-50.9069
-48.498
-48.5019
-48.5098
-48.5216
-48.5372
-48.5569
-48.5806
-48.609
-48.643
-48.6853
-48.7413
-48.8216
-48.9378
-49.0261
-48.312
-48.3065
-48.3103
-48.3181
-48.3297
-48.3452
-48.3646
-48.3882
-48.4164
-48.4504
-48.493
-48.5501
-48.6355
-48.7867
-49.1524
-50.6347
-48.1122
-48.116
-48.1237
-48.1351
-48.1504
-48.1695
-48.1925
-48.2198
-48.2519
-48.2906
-48.3391
-48.4035
-48.4868
-48.5034
-47.563
-47.9152
-47.919
-47.9265
-47.9379
-47.9529
-47.9716
-47.9939
-48.0197
-48.0489
-48.0813
-48.1167
-48.1586
-48.233
-48.5187
-50.2636
-47.7155
-47.7192
-47.7267
-47.7379
-47.7527
-47.7711
-47.7928
-47.8174
-47.8438
-47.8697
-47.8897
-47.8908
-47.8326
-47.5207
-45.716
-47.5131
-47.5168
-47.5242
-47.5353
-47.55
-47.5682
-47.5897
-47.6137
-47.639
-47.6621
-47.6755
-47.6643
-47.6081
-47.5593
-48.3773
-47.308
-47.3117
-47.319
-47.3301
-47.3448
-47.363
-47.3847
-47.4093
-47.4357
-47.461
-47.4782
-47.4688
-47.3784
-46.9958
-45.2851
-47.1002
-47.1038
-47.1112
-47.1222
-47.137
-47.1554
-47.1777
-47.2036
-47.2331
-47.2655
-47.2989
-47.3296
-47.3517
-47.3544
-47.3293
-46.8897
-46.8934
-46.9007
-46.9117
-46.9264
-46.9451
-46.968
-46.9955
-47.0286
-47.0691
-47.1211
-47.1964
-47.3383
-47.7321
-49.3576
-46.6766
-46.6802
-46.6874
-46.6984
-46.7131
-46.7318
-46.755
-46.7835
-46.819
-46.8645
-46.9266
-47.017
-47.1498
-47.2544
-46.4635
-46.4608
-46.4644
-46.4715
-46.4823
-46.4968
-46.5153
-46.5384
-46.5668
-46.6023
-46.6483
-46.7118
-46.8082
-46.981
-47.3981
-49.0748
-46.2425
-46.2459
-46.2529
-46.2634
-46.2776
-46.2956
-46.3179
-46.3451
-46.3784
-46.4199
-46.4735
-46.5463
-46.6426
-46.6669
-45.6161
-46.0215
-46.0249
-46.0316
-46.0418
-46.0555
-46.0728
-46.094
-46.1193
-46.1489
-46.1828
-46.2212
-46.2681
-46.354
-46.6821
-48.6659
-45.7981
-45.8013
-45.8078
-45.8176
-45.8307
-45.8473
-45.8673
-45.8906
-45.9163
-45.9423
-45.9626
-45.9626
-45.8973
-45.5472
-43.5069
-45.5723
-45.5753
-45.5815
-45.5908
-45.6034
-45.6192
-45.6382
-45.6601
-45.6837
-45.7055
-45.7174
-45.7023
-45.6384
-45.5857
-46.522
-45.3441
-45.347
-45.3528
-45.3616
-45.3736
-45.3887
-45.4071
-45.4286
-45.4523
-45.4754
-45.4902
-45.4759
-45.3716
-44.9371
-42.9921
-45.1137
-45.1164
-45.1218
-45.1301
-45.1414
-45.1558
-45.1738
-45.1955
-45.2214
-45.2509
-45.2824
-45.312
-45.334
-45.3372
-45.3116
-44.8813
-44.8837
-44.8887
-44.8963
-44.9067
-44.9204
-44.9377
-44.9598
-44.9879
-45.0247
-45.0752
-45.1533
-45.3096
-45.7568
-47.616
-44.6469
-44.6491
-44.6535
-44.6603
-44.6697
-44.6821
-44.6984
-44.7198
-44.7485
-44.7887
-44.848
-44.9404
-45.0829
-45.1957
-44.2869
-44.4108
-44.4126
-44.4164
-44.4222
-44.4303
-44.4412
-44.4555
-44.4747
-44.5012
-44.5392
-44.5969
-44.6926
-44.877
-45.3434
-47.2569
-44.1732
-44.1746
-44.1776
-44.1823
-44.1888
-44.1976
-44.2092
-44.2248
-44.2459
-44.2756
-44.3185
-44.3831
-44.4752
-44.4859
-43.266
-43.9343
-43.9353
-43.9375
-43.9408
-43.9455
-43.9518
-43.9601
-43.9709
-43.9849
-44.0024
-44.0241
-44.0546
-44.13
-44.4823
-46.7237
-43.6944
-43.695
-43.6962
-43.6981
-43.7008
-43.7044
-43.7092
-43.7151
-43.7214
-43.7261
-43.7226
-43.6947
-43.5925
-43.1665
-40.8178
-43.4539
-43.454
-43.4542
-43.4546
-43.4552
-43.4562
-43.4575
-43.4589
-43.4593
-43.455
-43.437
-43.3865
-43.2797
-43.1855
-44.2074
-43.2131
-43.2127
-43.2118
-43.2106
-43.2091
-43.2074
-43.2056
-43.2036
-43.2004
-43.1931
-43.173
-43.1171
-42.9583
-42.4289
-40.2079
-42.9723
-42.9713
-42.9694
-42.9666
-42.9629
-42.9586
-42.9539
-42.9491
-42.9445
-42.9397
-42.9328
-42.9193
-42.8941
-42.8464
-42.7718
-42.7319
-42.7303
-42.7273
-42.7228
-42.7169
-42.7098
-42.7021
-42.6946
-42.6888
-42.6874
-42.6959
-42.7296
-42.8455
-43.2821
-45.2875
-42.4922
-42.4901
-42.4859
-42.4797
-42.4714
-42.4614
-42.4502
-42.439
-42.4301
-42.4279
-42.4404
-42.4827
-42.5741
-42.6277
-41.5581
-42.2538
-42.2511
-42.2457
-42.2376
-42.2268
-42.2135
-42.1981
-42.1819
-42.1669
-42.1578
-42.163
-42.2017
-42.3289
-42.7529
-44.7312
-42.0169
-42.0136
-42.0071
-41.9971
-41.9837
-41.9668
-41.9467
-41.9239
-41.8999
-41.8774
-41.861
-41.8593
-41.8778
-41.798
-40.3932
-41.7819
-41.7781
-41.7705
-41.7587
-41.7427
-41.7222
-41.6969
-41.6668
-41.6319
-41.5922
-41.5477
-41.5027
-41.4948
-41.7626
-43.9725
-41.5493
-41.545
-41.5363
-41.523
-41.5046
-41.4806
-41.4505
-41.4132
-41.3674
-41.3099
-41.2333
-41.1203
-40.9204
-40.3779
-37.8572
-41.3193
-41.3146
-41.3051
-41.2904
-41.27
-41.2432
-41.2089
-41.1657
-41.1112
-41.0404
-40.9428
-40.7984
-40.5839
-40.3662
-41.2288
-41.0922
-41.0873
-41.0772
-41.0615
-41.0396
-41.0106
-40.9734
-40.9262
-40.8665
-40.7891
-40.6835
-40.5251
-40.2495
-39.6038
-37.3347
-40.8683
-40.8632
-40.8527
-40.8365
-40.8137
-40.7835
-40.7447
-40.6955
-40.6341
-40.5571
-40.4593
-40.3331
-40.172
-39.9681
-39.7381
-40.6475
-40.6424
-40.632
-40.6157
-40.5928
-40.5623
-40.523
-40.4736
-40.4126
-40.339
-40.2535
-40.1653
-40.1244
-40.3498
-41.9862
-40.43
-40.4251
-40.4149
-40.399
-40.3767
-40.3469
-40.3084
-40.2597
-40.2
-40.1288
-40.0479
-39.9648
-39.8918
-39.7509
-38.6035
-40.2156
-40.2109
-40.2014
-40.1866
-40.1655
-40.1373
-40.1006
-40.0538
-39.9955
-39.9247
-39.8425
-39.7572
-39.7064
-39.8502
-41.2
-40.004
-39.9999
-39.9913
-39.978
-39.959
-39.9334
-39.8997
-39.856
-39.7998
-39.7281
-39.6377
-39.5257
-39.3858
-39.1114
-37.7485
-39.795
-39.7915
-39.7842
-39.7729
-39.7568
-39.7349
-39.7058
-39.667
-39.6149
-39.5441
-39.4464
-39.3136
-39.1587
-39.1277
-40.3449
-39.5881
-39.5853
-39.5796
-39.5707
-39.5582
-39.5413
-39.5185
-39.4873
-39.4432
-39.3783
-39.2779
-39.1169
-38.8455
-38.2764
-36.3347
-39.3828
-39.3808
-39.3768
-39.3707
-39.3623
-39.3514
-39.3369
-39.3167
-39.2862
-39.2365
-39.15
-38.9967
-38.7391
-38.3775
-38.4374
-39.1786
-39.1773
-39.175
-39.1718
-39.1679
-39.1638
-39.1593
-39.1533
-39.1428
-39.1198
-39.0667
-38.9491
-38.7049
-38.1851
-36.8424
-38.9748
-38.9743
-38.9734
-38.9729
-38.9734
-38.9762
-38.9825
-38.9932
-39.0082
-39.0235
-39.0267
-38.9895
-38.8619
-38.5634
-38.0637
-38.7711
-38.771
-38.7713
-38.7728
-38.777
-38.786
-38.8025
-38.8303
-38.8735
-38.9351
-39.013
-39.0926
-39.1377
-39.0808
-38.9427
-38.5671
-38.5672
-38.568
-38.5706
-38.577
-38.5902
-38.6146
-38.6569
-38.7263
-38.8349
-38.9966
-39.2197
-39.4844
-39.6539
-39.3614
-38.3626
-38.3625
-38.363
-38.3653
-38.3718
-38.3863
-38.4143
-38.4648
-38.5518
-38.6974
-38.9357
-39.318
-39.8971
-40.5472
-39.9508
-38.1578
-38.1571
-38.1562
-38.1567
-38.1609
-38.1727
-38.1983
-38.2475
-38.3369
-38.4948
-38.7732
-39.2797
-40.2606
-42.3052
-46.8343
-37.9532
-37.9514
-37.9483
-37.9452
-37.9443
-37.9493
-37.9657
-38.0025
-38.0746
-38.2078
-38.4508
-38.9119
-39.8855
-42.3372
-50.1644
-51.8867
-43.8273
-41.2721
-40.243
-39.7454
-39.4755
-39.321
-39.2316
-39.1807
-39.153
-39.139
-39.1329
-39.1309
-39.1307
-39.1309
-48.8346
-43.8202
-41.6343
-40.5901
-40.0443
-39.7376
-39.558
-39.4513
-39.3882
-39.3515
-39.331
-39.3202
-39.3149
-39.3126
-39.3118
-40.9315
-41.8479
-41.2041
-40.5909
-40.1756
-39.9109
-39.7445
-39.6409
-39.5771
-39.5386
-39.516
-39.5033
-39.4965
-39.4931
-39.4918
-40.7345
-40.9584
-40.7528
-40.4541
-40.201
-40.0153
-39.8874
-39.8028
-39.7484
-39.7144
-39.6938
-39.6819
-39.6753
-39.6719
-39.6705
-40.3868
-40.3663
-40.3665
-40.2856
-40.1783
-40.0789
-40.0004
-39.9438
-39.9055
-39.8807
-39.8654
-39.8564
-39.8514
-39.8489
-39.8479
-39.1346
-39.7591
-40.0369
-40.1352
-40.1485
-40.1274
-40.0982
-40.0724
-40.053
-40.0401
-40.0321
-40.0277
-40.0255
-40.0245
-40.0242
-38.3767
-39.3918
-39.8321
-40.0436
-40.1414
-40.181
-40.1938
-40.1964
-40.1961
-40.1958
-40.1962
-40.1971
-40.1983
-40.1993
-40.1999
-39.2715
-39.4229
-39.7866
-40.0307
-40.1732
-40.2525
-40.2966
-40.3226
-40.3392
-40.3508
-40.3594
-40.366
-40.3708
-40.3741
-40.3757
-37.7128
-39.3057
-39.8243