/*--------------------------------*- C++ -*----------------------------------*\
| =========                 |                                                 |
| \\      /  F ield         | OpenFOAM: The Open Source CFD Toolbox           |
|  \\    /   O peration     | Version:  5.x                                   |
|   \\  /    A nd           | Web:      www.OpenFOAM.org                      |
|    \\/     M anipulation  |                                                 |
\*---------------------------------------------------------------------------*/
FoamFile
{
    version     2.0;
    format      ascii;
    class       volScalarField;
    location    "4.2";
    object      gradTy;
}
// * * * * * * * * * * * * * * * * * * * * * * * * * * * * * * * * * * * * * //

dimensions      [0 -1 0 1 0 0 0];

internalField   nonuniform List<scalar> 
6300
(
32275.1
32225.4
32175.6
32126
32076.4
32026.8
31977.4
31928.1
31879
31830
31781.2
31732.6
31684.2
31636
31588.1
-0.0143614
-0.0431473
-0.07211
-0.101328
-0.130813
-0.160483
-0.190142
-0.219473
-0.248039
-0.275308
-0.300725
-0.323807
-0.344282
-0.36224
-0.378255
-0.0238585
-0.0717051
-0.119899
-0.168591
-0.217826
-0.267493
-0.317282
-0.366658
-0.414859
-0.460932
-0.503836
-0.542614
-0.576643
-0.605933
-0.631402
-0.0332387
-0.0999199
-0.167178
-0.235293
-0.304388
-0.374358
-0.444808
-0.514988
-0.583773
-0.649689
-0.711033
-0.766126
-0.813699
-0.853407
-0.886356
-0.0424198
-0.127568
-0.213614
-0.301031
-0.39009
-0.480764
-0.572624
-0.664737
-0.755584
-0.843047
-0.924515
-0.99719
-1.05865
-1.10769
-1.14526
-0.0512803
-0.1543
-0.258659
-0.365106
-0.474155
-0.58596
-0.700163
-0.815725
-0.930751
-1.04237
-1.14676
-1.23943
-1.31599
-1.3734
-1.41169
-0.0596804
-0.179693
-0.301617
-0.426581
-0.555466
-0.688758
-0.826345
-0.96725
-1.10932
-1.24893
-1.38071
-1.49779
-1.59248
-1.65821
-1.69246
-0.0674316
-0.203179
-0.341542
-0.484141
-0.632378
-0.787272
-0.949217
-1.11761
-1.29038
-1.46329
-1.62938
-1.77851
-1.89789
-1.97445
-1.99971
-0.0743003
-0.224051
-0.377232
-0.536066
-0.702636
-0.87874
-1.06564
-1.26361
-1.47127
-1.68448
-1.89499
-2.08892
-2.24607
-2.34191
-2.35505
-0.0800195
-0.241491
-0.40727
-0.580256
-0.763359
-0.959413
-1.17098
-1.39993
-1.64659
-1.90834
-2.17712
-2.43603
-2.65545
-2.79191
-2.79701
-0.0843062
-0.254623
-0.430099
-0.614329
-0.811128
-1.02457
-1.25894
-1.51851
-1.80681
-2.1251
-2.46905
-2.82253
-3.14763
-3.37311
-3.39539
-0.0868883
-0.262593
-0.444171
-0.635832
-0.842252
-1.06879
-1.3217
-1.60832
-1.93699
-2.31614
-2.75133
-3.23729
-3.73931
-4.15739
-4.28269
-0.0875415
-0.264691
-0.448158
-0.642576
-0.853259
-1.08662
-1.35072
-1.65607
-2.01664
-2.45103
-2.98273
-3.63589
-4.41482
-5.23446
-5.73595
-0.086128
-0.260468
-0.441195
-0.63305
-0.841586
-1.07371
-1.33849
-1.64855
-2.02241
-2.48853
-3.09257
-3.90863
-5.04962
-6.62979
-8.4015
-0.0826307
-0.249856
-0.423103
-0.606844
-0.806329
-1.02812
-1.28095
-1.57721
-1.93582
-2.388
-2.99028
-3.85644
-5.24541
-7.83383
-13.6728
31544.4
31504.8
31465.5
31426.3
31387.3
31348.5
31310
31271.6
31233.6
31195.7
31158.2
31121
31084
31047.4
31011.1
30975.2
30939.7
30904.5
30869.7
30835.2
30801.1
30767.4
30734.1
30701.1
30668.5
30636.2
30604.2
30572.6
30541.2
30510.1
30479.3
30448.8
30418.4
30388.4
30358.5
30328.8
30299.4
30270.1
30241
30212.1
30183.3
30154.8
30126.4
30098.1
30070.1
30042.1
30014.4
29986.8
29959.4
29932.1
29904.9
29877.9
29851.1
29824.3
29797.7
29771.1
29744.7
29718.3
29692
29665.8
29639.6
29613.4
29587.2
29561.1
29535
29508.8
29482.7
29456.5
29430.3
29404.1
29377.8
29351.5
29325.1
29298.6
29272
29245.4
29218.6
29191.8
29164.8
29137.7
29110.5
29083.1
29055.6
29027.9
29000
28972
28943.8
28915.4
28886.9
28858.1
-0.392171
-0.405263
-0.419837
-0.436921
-0.457369
-0.481712
-0.510034
-0.541929
-0.576534
-0.61264
-0.648859
-0.683803
-0.716239
-0.745188
-0.769951
-0.790073
-0.805276
-0.815385
-0.820283
-0.819913
-0.8143
-0.803601
-0.788135
-0.768383
-0.744969
-0.718612
-0.690075
-0.660133
-0.629547
-0.599052
-0.569339
-0.54103
-0.514637
-0.490532
-0.468929
-0.449898
-0.433395
-0.419318
-0.407541
-0.39793
-0.390327
-0.384503
-0.380108
-0.376643
-0.37346
-0.369814
-0.364943
-0.358165
-0.348961
-0.337034
-0.322317
-0.304953
-0.285241
-0.263586
-0.240449
-0.216313
-0.191665
-0.166962
-0.14261
-0.118918
-0.0960765
-0.0741394
-0.0530427
-0.032643
-0.0127703
0.00672448
0.0259421
0.0449362
0.0637379
0.0823876
0.100958
0.119553
0.138288
0.157249
0.176463
0.19588
0.215384
0.234827
0.254061
0.272964
0.291433
0.309362
0.326589
0.342857
0.357793
0.370914
0.381672
0.389516
0.393957
0.394621
-0.653029
-0.673222
-0.695902
-0.723037
-0.756298
-0.79675
-0.844612
-0.899155
-0.958763
-1.02116
-1.08375
-1.14397
-1.1996
-1.24899
-1.291
-1.325
-1.35063
-1.36768
-1.37595
-1.3753
-1.3657
-1.34738
-1.32084
-1.28694
-1.24678
-1.20164
-1.15286
-1.10175
-1.04961
-0.997686
-0.947185
-0.899194
-0.854621
-0.814111
-0.778004
-0.746357
-0.719025
-0.695771
-0.676364
-0.66061
-0.648315
-0.639175
-0.632657
-0.627918
-0.623805
-0.618945
-0.611916
-0.601446
-0.586586
-0.566816
-0.542065
-0.512648
-0.479153
-0.442326
-0.402988
-0.361987
-0.32017
-0.278353
-0.237266
-0.197474
-0.15931
-0.122842
-0.0879003
-0.0541626
-0.0212699
0.0110686
0.0430195
0.0746345
0.105915
0.136892
0.167687
0.19851
0.22961
0.261184
0.293298
0.325853
0.35861
0.391263
0.423529
0.45521
0.486184
0.516343
0.545485
0.573219
0.598903
0.621668
0.640498
0.654365
0.662362
0.663824
-0.913011
-0.937491
-0.965441
-1.00022
-1.04475
-1.10099
-1.16945
-1.24896
-1.33685
-1.42928
-1.52192
-1.6106
-1.69185
-1.76326
-1.82345
-1.87184
-1.90822
-1.93248
-1.94432
-1.94342
-1.92954
-1.90283
-1.86401
-1.81435
-1.75562
-1.68978
-1.61883
-1.54469
-1.46919
-1.39413
-1.32126
-1.25228
-1.1886
-1.13119
-1.0805
-1.03645
-0.998626
-0.96653
-0.939771
-0.918157
-0.901608
-0.889919
-0.882492
-0.878144
-0.875077
-0.871052
-0.8637
-0.850907
-0.831138
-0.803629
-0.768395
-0.72608
-0.677726
-0.624547
-0.567791
-0.508706
-0.448547
-0.388568
-0.329932
-0.273561
-0.21998
-0.169227
-0.120906
-0.0743486
-0.0288566
0.0160844
0.0606925
0.104925
0.148636
0.191767
0.234481
0.277174
0.320352
0.36444
0.409596
0.455635
0.502081
0.548347
0.593932
0.638563
0.682194
0.724868
0.766489
0.806607
0.844291
0.878158
0.906541
0.927739
0.940256
0.94301
-1.17273
-1.19687
-1.22526
-1.26346
-1.31648
-1.3878
-1.4785
-1.58687
-1.70855
-1.83728
-1.966
-2.08811
-2.19848
-2.29392
-2.37315
-2.4362
-2.48355
-2.5154
-2.53134
-2.53052
-2.51215
-2.47604
-2.42308
-2.35517
-2.27503
-2.18561
-2.08975
-1.98996
-1.88853
-1.78777
-1.69014
-1.59814
-1.51395
-1.43903
-1.37386
-1.31799
-1.27042
-1.23005
-1.19622
-1.16887
-1.14836
-1.13499
-1.12837
-1.127
-1.12821
-1.12843
-1.12381
-1.11091
-1.08733
-1.05206
-1.00542
-0.948708
-0.883748
-0.812417
-0.736447
-0.657468
-0.577161
-0.497339
-0.419823
-0.346118
-0.277055
-0.212585
-0.151839
-0.0934635
-0.0361058
0.021131
0.0784653
0.135535
0.191769
0.246826
0.300901
0.354743
0.4094
0.465782
0.52426
0.584476
0.645472
0.70608
0.765389
0.823049
0.879287
0.934622
0.989384
1.04324
1.09493
1.1423
1.1827
1.2134
1.23203
1.23694
-1.43362
-1.45003
-1.4709
-1.5053
-1.56179
-1.64661
-1.76204
-1.90555
-2.07005
-2.24522
-2.41952
-2.58248
-2.72653
-2.84785
-2.94609
-3.02312
-3.08114
-3.12117
-3.14244
-3.14286
-3.12023
-3.0735
-3.00362
-2.91358
-2.80774
-2.69068
-2.56631
-2.43757
-2.30688
-2.17688
-2.05088
-1.93271
-1.82592
-1.7328
-1.6538
-1.58759
-1.53182
-1.48414
-1.44333
-1.40972
-1.38485
-1.37035
-1.36668
-1.37216
-1.38279
-1.39281
-1.39585
-1.38629
-1.36039
-1.31691
-1.25696
-1.18324
-1.09898
-1.007
-0.909473
-0.808179
-0.705113
-0.602829
-0.504265
-0.412029
-0.327558
-0.250622
-0.179401
-0.111154
-0.0432222
0.0259965
0.0965779
0.167311
0.236558
0.303264
0.36762
0.431107
0.495929
0.564073
0.636391
0.712166
0.789392
0.865658
0.939197
1.00956
1.07766
1.14518
1.21356
1.28298
1.35175
1.41649
1.47283
1.51639
1.54355
1.55182
-1.69953
-1.6967
-1.697
-1.71523
-1.76619
-1.86124
-2.00504
-2.19389
-2.4161
-2.65432
-2.88926
-3.10398
-3.2872
-3.43488
-3.54947
-3.63728
-3.7045
-3.75383
-3.78344
-3.78828
-3.76288
-3.70415
-3.61304
-3.49462
-3.35647
-3.20615
-3.04901
-2.88783
-2.72409
-2.56007
-2.4002
-2.25076
-2.11807
-2.00608
-1.91515
-1.84203
-1.7814
-1.72818
-1.67991
-1.63783
-1.60623
-1.58997
-1.59166
-1.60974
-1.63808
-1.66709
-1.6859
-1.68504
-1.6586
-1.60532
-1.52818
-1.43282
-1.32516
-1.20943
-1.08777
-0.961294
-0.831788
-0.702814
-0.579449
-0.466611
-0.367063
-0.280281
-0.202536
-0.128244
-0.0520489
0.0290415
0.114612
0.201367
0.285143
0.363225
0.435728
0.505686
0.577811
0.656486
0.743671
0.837894
0.934818
1.02929
1.1177
1.19944
1.27698
1.35461
1.43636
1.52374
1.61449
1.70287
1.78144
1.84311
1.88236
1.89567
-1.97866
-1.93875
-1.89712
-1.87783
-1.90687
-2.00543
-2.18287
-2.4339
-2.73879
-3.06784
-3.38778
-3.67049
-3.89872
-4.0692
-4.19104
-4.2807
-4.35321
-4.41445
-4.45971
-4.4768
-4.45309
-4.38094
-4.26133
-4.10355
-3.92222
-3.73092
-3.53701
-3.34126
-3.14116
-2.93675
-2.73391
-2.54414
-2.3798
-2.24846
-2.15025
-2.07786
-2.0197
-1.96449
-1.90692
-1.8502
-1.80486
-1.78311
-1.79237
-1.83186
-1.89173
-1.9554
-2.00358
-2.01992
-1.99478
-1.9274
-1.82492
-1.69941
-1.56227
-1.41968
-1.27231
-1.11808
-0.957004
-0.794034
-0.638785
-0.501371
-0.387505
-0.296254
-0.220025
-0.147412
-0.0672665
0.0262847
0.131581
0.240345
0.342548
0.431833
0.508104
0.57774
0.650844
0.737219
0.841374
0.960278
1.08431
1.20215
1.30633
1.39588
1.47664
1.55856
1.65151
1.7601
1.88104
2.00375
2.11476
2.20247
2.25886
2.27946
-2.28751
-2.18304
-2.06479
-1.97048
-1.94705
-2.03558
-2.25422
-2.59578
-3.0261
-3.49388
-3.9393
-4.31479
-4.59269
-4.77285
-4.87817
-4.94805
-5.01732
-5.09725
-5.17565
-5.22318
-5.21212
-5.12514
-4.96357
-4.7454
-4.50125
-4.25838
-4.02656
-3.7998
-3.56328
-3.31001
-3.0476
-2.79967
-2.59279
-2.44185
-2.34689
-2.29191
-2.25242
-2.20283
-2.13137
-2.0448
-1.96811
-1.93015
-1.94809
-2.02319
-2.13843
-2.26453
-2.36564
-2.41303
-2.3903
-2.29848
-2.15332
-1.98122
-1.80568
-1.63528
-1.46522
-1.28317
-1.08342
-0.872611
-0.670922
-0.500713
-0.37388
-0.289103
-0.230827
-0.175956
-0.100333
0.00805349
0.144976
0.290171
0.41993
0.520532
0.591367
0.646112
0.706056
0.793612
0.919073
1.07649
1.24387
1.39582
1.51712
1.60603
1.6757
1.74764
1.84515
1.9796
2.14594
2.32234
2.48245
2.6077
2.68762
2.71844
-2.65813
-2.44691
-2.19768
-1.96076
-1.82564
-1.87792
-2.14804
-2.62929
-3.25886
-3.95144
-4.59082
-5.09891
-5.42667
-5.5835
-5.61551
-5.61541
-5.66518
-5.7813
-5.93507
-6.05292
-6.07945
-5.97569
-5.74624
-5.42355
-5.07729
-4.76871
-4.50758
-4.27114
-4.00822
-3.69514
-3.33908
-2.99473
-2.72382
-2.55319
-2.48451
-2.48215
-2.4982
-2.47113
-2.37604
-2.22361
-2.07401
-1.99509
-2.01986
-2.15508
-2.3678
-2.60798
-2.80335
-2.90542
-2.88357
-2.74466
-2.51874
-2.26627
-2.03991
-1.84862
-1.67363
-1.47198
-1.22402
-0.936289
-0.655977
-0.435845
-0.297956
-0.242066
-0.235007
-0.232675
-0.17888
-0.0495859
0.148129
0.36387
0.540921
0.653687
0.699367
0.708542
0.723032
0.796926
0.952234
1.17981
1.42706
1.635
1.77588
1.84516
1.87274
1.90112
1.98677
2.15433
2.39747
2.66544
2.90135
3.07913
3.18795
3.23365
-3.15092
-2.76535
-2.31277
-1.80446
-1.43448
-1.40673
-1.73799
-2.44931
-3.40102
-4.48575
-5.43158
-6.14288
-6.507
-6.57416
-6.39935
-6.21124
-6.21781
-6.41144
-6.7465
-7.01448
-7.13472
-7.00763
-6.66356
-6.13606
-5.59951
-5.21116
-4.95348
-4.78107
-4.52585
-4.14264
-3.61418
-3.08458
-2.71095
-2.51828
-2.52713
-2.64646
-2.80665
-2.83798
-2.70389
-2.399
-2.07879
-1.91139
-1.93325
-2.17604
-2.55834
-3.01663
-3.37613
-3.57696
-3.54617
-3.31688
-2.92315
-2.51446
-2.22441
-2.03923
-1.92118
-1.72823
-1.42262
-0.990024
-0.555107
-0.253279
-0.104683
-0.125438
-0.233096
-0.364207
-0.366834
-0.206427
0.124671
0.492645
0.753857
0.882826
0.85932
0.762722
0.653891
0.682459
0.880812
1.2543
1.66639
1.97032
2.13731
2.14391
2.06819
1.97174
2.01008
2.21988
2.6129
3.05438
3.40361
3.64953
3.7788
3.85287
-3.87891
-3.18037
-2.50832
-1.4494
-0.551201
-0.419428
-0.781709
-1.92431
-3.35283
-5.2214
-6.61148
-7.68831
-8.01659
-7.91502
-7.20419
-6.52869
-6.50313
-6.84008
-7.65676
-8.19113
-8.54857
-8.35455
-7.84765
-6.86433
-5.91113
-5.46838
-5.27958
-5.4133
-5.23091
-4.8025
-3.89422
-2.95321
-2.44099
-2.19671
-2.4143
-2.75559
-3.30441
-3.44688
-3.28161
-2.60043
-1.86762
-1.55928
-1.53274
-2.00037
-2.64375
-3.57188
-4.18183
-4.58647
-4.49914
-4.13043
-3.35369
-2.59642
-2.26255
-2.1378
-2.28122
-2.15138
-1.80872
-1.05174
-0.267216
0.145334
0.327873
0.111767
-0.201939
-0.685247
-0.793996
-0.613463
0.0437852
0.770892
1.15304
1.32742
1.12046
0.830539
0.382988
0.319696
0.553479
1.26959
2.05798
2.49944
2.7264
2.558
2.29038
1.84525
1.78357
2.01875
2.75586
3.57356
4.05218
4.38551
4.44683
4.61646
-5.08459
-3.55759
-3.26116
-0.862705
1.43613
1.27976
1.29866
-0.987193
-2.67061
-6.6457
-8.24209
-10.3112
-10.1447
-10.1327
-7.95759
-5.90962
-6.26584
-6.57734
-8.97298
-9.62199
-10.7559
-10.1513
-9.7171
-7.54846
-5.48693
-5.35911
-5.14048
-6.49999
-6.28944
-6.15257
-4.2205
-2.20348
-1.78425
-1.20915
-2.12243
-2.56497
-4.38641
-4.49799
-4.60129
-2.87518
-1.04418
-0.800319
-0.419579
-1.57062
-2.31808
-4.58428
-5.28214
-6.30332
-5.8562
-5.53046
-3.75507
-2.06758
-1.99841
-1.84907
-3.03362
-2.87985
-2.7903
-1.152
0.557432
0.876282
1.33561
0.490659
0.0745966
-1.5445
-1.63657
-1.70585
-0.136607
1.54694
1.85244
2.32222
1.50217
1.12645
-0.440146
-0.469768
-0.467371
1.18176
2.95007
3.33837
3.88576
3.1159
2.76913
1.16754
1.13051
1.09567
2.78356
4.58168
4.91069
5.51391
4.9597
5.62828
-7.63688
-2.16258
-7.04083
-0.132421
6.95919
2.72692
6.69832
-0.917183
1.31209
-11.495
-9.19154
-16.1529
-12.0499
-15.4646
-8.52742
-1.82797
-6.09234
-3.31283
-12.8038
-10.354
-15.466
-11.7022
-14.0834
-8.0776
-2.27745
-5.37986
-2.72805
-9.84679
-7.24107
-10.0869
-4.66827
0.847967
-1.35107
1.92261
-2.50754
-0.3878
-7.92973
-5.56008
-8.55436
-3.30001
2.06572
-0.23745
2.90039
-1.721
0.195603
-7.85408
-5.9158
-10.1335
-7.0374
-9.01692
-4.02876
0.792734
-1.8486
0.361555
-5.71208
-3.51471
-6.00098
-1.35355
3.38563
1.40606
4.22262
0.253083
2.08462
-4.60152
-2.51084
-5.15655
-0.480504
4.30846
2.31638
5.17543
1.24513
3.13829
-3.47541
-1.30429
-3.85843
0.923337
5.83034
3.94918
6.94287
3.06554
5.05571
-1.76214
0.475155
-2.30721
2.65334
7.70616
5.37509
8.30976
3.71255
7.45548
-17.0705
14.1404
-27.793
0.334124
28.7886
-7.63935
28.783
-15.0239
26.9469
-38.1037
3.20008
-37.9279
-3.12996
-35.704
-8.75534
18.0411
-16.0626
17.6206
-33.83
-0.197459
-32.9582
-4.40505
-30.528
-8.31143
13.7509
-13.6876
13.7531
-27.1978
-0.343372
-25.9232
-5.25759
15.0084
-8.79972
16.1468
-12.3257
15.701
-25.747
1.10064
-24.3868
-3.88656
16.2175
-7.51103
17.3923
-11.2875
17.0593
-25.508
2.31363
-24.4971
-0.911278
-22.5384
-4.06405
14.3979
-8.68653
14.4992
-20.3024
2.59325
-19.4858
-1.68885
15.8872
-4.97217
16.8799
-8.33963
16.3585
-20.2987
3.43373
-19.1521
-0.98849
16.8332
-4.20674
17.8038
-7.39909
17.3985
-19.1621
4.66423
-17.8144
0.483362
18.4844
-2.46091
19.8931
-5.43508
20.0247
-17.7322
7.04712
-16.8607
2.38939
21.4626
-1.74392
21.9507
-9.54523
14.4265
28826.3
28791.3
28756
28720.5
28684.7
28648.8
28612.6
28576.3
28539.7
28503.1
28466.3
28429.5
28392.5
28355.5
28318.5
0.390967
0.381244
0.366113
0.346202
0.32233
0.295389
0.266244
0.235659
0.204258
0.17251
0.140728
0.109098
0.0776949
0.0465114
0.0154845
0.657824
0.641288
0.615401
0.581332
0.540572
0.49472
0.4453
0.393638
0.34079
0.287529
0.234363
0.18157
0.129246
0.07735
0.0257481
0.934675
0.910688
0.872877
0.823154
0.763903
0.697615
0.6266
0.552806
0.477739
0.402462
0.327632
0.253578
0.180373
0.107897
0.0359087
1.22631
1.19381
1.14217
1.07442
0.99419
0.905166
0.810621
0.713202
0.61487
0.516926
0.420113
0.324735
0.230769
0.137959
0.0458997
1.53884
1.49605
1.42757
1.33812
1.23323
1.11819
0.99747
0.87448
0.751587
0.630237
0.511143
0.39447
0.280003
0.167268
0.0556311
1.88005
1.82405
1.73394
1.61728
1.4824
1.33684
1.18653
1.03561
0.886729
0.74127
0.599733
0.461988
0.327498
0.195476
0.0649862
2.26045
2.18632
2.067
1.91477
1.74231
1.56024
1.37611
1.19465
1.0184
0.848353
0.684512
0.526234
0.372515
0.222148
0.0738213
2.6947
2.5942
2.43333
2.2328
2.01208
1.78579
1.56301
1.34841
1.14379
0.949185
0.763695
0.585904
0.41417
0.246771
0.0819695
3.20415
3.06298
2.8398
2.57146
2.28791
2.00821
1.74188
1.49222
1.25911
1.04085
0.835141
0.639488
0.451471
0.268787
0.08925
3.8223
3.6136
3.29132
2.92536
2.56028
2.2177
1.90438
1.61957
1.35957
1.11996
0.89649
0.685406
0.483419
0.287645
0.0954867
4.61415
4.27648
3.78541
3.27727
2.80989
2.39813
2.03859
1.72224
1.43969
1.1829
0.94543
0.722199
0.509134
0.302876
0.100533
5.74175
5.09328
4.29712
3.58759
3.00338
2.52629
2.12973
1.79121
1.49408
1.22651
0.980116
0.748807
0.528026
0.314187
0.104301
7.6424
6.05782
4.72348
3.77274
3.08958
2.57395
2.16293
1.81884
1.51892
1.24895
0.999693
0.764867
0.539962
0.321538
0.106783
11.3307
6.77125
4.76596
3.69017
3.00824
2.51714
2.1293
1.80238
1.51383
1.25065
1.00481
0.770984
0.545402
0.32521
0.108074
-0.0777677
-0.235048
-0.397665
-0.569536
-0.75518
-0.960118
-1.19148
-1.45908
-1.77732
-2.16917
-2.67503
-3.37502
-4.45281
-6.40287
-10.7785
-0.0720063
-0.217486
-0.367427
-0.525024
-0.693825
-0.877914
-1.08214
-1.3124
-1.57588
-1.88092
-2.23492
-2.63353
-3.011
-3.013
-0.916547
-0.065227
-0.196824
-0.331871
-0.472734
-0.621855
-0.781719
-0.954701
-1.14261
-1.34552
-1.5586
-1.76387
-1.90685
-1.82979
-1.08009
1.59633
-0.0576529
-0.173764
-0.292276
-0.414711
-0.542426
-0.67641
-0.816868
-0.962358
-1.10799
-1.24166
-1.33616
-1.33318
-1.11535
-0.485454
0.653423
-0.0495178
-0.149036
-0.249953
-0.353019
-0.458642
-0.566601
-0.675522
-0.781949
-0.878676
-0.951834
-0.976199
-0.90898
-0.686657
-0.244426
0.393036
-0.0410471
-0.123336
-0.206138
-0.289549
-0.373237
-0.456124
-0.535897
-0.608237
-0.665635
-0.695763
-0.679822
-0.592709
-0.410485
-0.138997
0.105301
-0.0324411
-0.0972764
-0.161895
-0.225884
-0.288386
-0.347806
-0.40143
-0.444881
-0.471464
-0.471566
-0.432796
-0.342568
-0.196217
-0.0146564
0.133486
-0.0238664
-0.0713638
-0.118082
-0.163245
-0.205663
-0.243506
-0.274021
-0.293227
-0.29564
-0.27427
-0.221424
-0.131394
-0.00634372
0.132941
0.226576
-0.0154531
-0.045987
-0.0753391
-0.102499
-0.126104
-0.144279
-0.154454
-0.153224
-0.136309
-0.0987706
-0.0358055
0.0555047
0.173699
0.31229
0.476013
-0.00729595
-0.0214241
-0.0341086
-0.0442062
-0.0502995
-0.0505863
-0.0427859
-0.0240999
0.00871912
0.0591134
0.13018
0.223786
0.33963
0.474246
0.614015
0.000542224
0.00214394
0.00533771
0.0113215
0.0214929
0.0375143
0.0613475
0.0952302
0.14156
0.202674
0.28056
0.376681
0.492574
0.632685
0.815616
0.0080244
0.024615
0.0428599
0.0639585
0.0892444
0.120216
0.158531
0.205942
0.264156
0.334618
0.418321
0.515904
0.628744
0.761455
0.919286
0.0151336
0.0459464
0.078415
0.113707
0.153071
0.197846
0.249427
0.309181
0.378271
0.457397
0.546487
0.644599
0.751157
0.87285
1.05158
0.0218673
0.0661372
0.112025
0.160647
0.213165
0.270779
0.334682
0.405968
0.485443
0.573285
0.668435
0.7675
0.8631
0.944706
1.03199
0.0282326
0.0852141
0.143752
0.204904
0.269749
0.339376
0.414843
0.497103
0.586836
0.684129
0.787712
0.892881
0.984803
1.01269
0.769817
0.0342424
0.10322
0.17368
0.246618
0.323041
0.40395
0.490326
0.583084
0.683011
0.790637
0.905934
1.02754
1.15102
1.26877
1.40821
0.0399134
0.120207
0.201903
0.285937
0.373247
0.464765
0.561416
0.664125
0.773875
0.891851
1.01983
1.16098
1.32127
1.50987
1.71925
0.0452634
0.136231
0.228519
0.323006
0.420563
0.522053
0.628339
0.740319
0.859062
0.986157
1.12463
1.28121
1.47193
1.73664
2.18354
0.050311
0.151348
0.253627
0.357969
0.465181
0.576051
0.69135
0.811861
0.938491
1.0726
1.2169
1.37782
1.57129
1.83698
2.27052
0.0550741
0.165613
0.277321
0.390965
0.507292
0.627014
0.750787
0.8792
1.01277
1.15201
1.29771
1.4519
1.62057
1.82086
2.09173
0.0595696
0.179078
0.29969
0.422126
0.547083
0.675205
0.807049
0.943005
1.08315
1.22696
1.37269
1.51604
1.64795
1.75582
1.87884
0.0638128
0.191789
0.320811
0.451566
0.584712
0.720855
0.860502
1.00395
1.15104
1.30064
1.44938
1.58823
1.69208
1.68039
1.23348
0.0678169
0.203785
0.340752
0.479376
0.620297
0.764119
0.911369
1.0624
1.21722
1.37497
1.53302
1.68483
1.81649
1.90729
1.99097
0.0715934
0.215099
0.359563
0.505621
0.653908
0.805051
0.959658
1.11829
1.2814
1.44914
1.62106
1.79555
1.96935
2.13925
2.3068
0.0751525
0.225763
0.377289
0.530351
0.685577
0.843626
1.00521
1.17113
1.34241
1.52044
1.70739
1.90686
2.12503
2.37295
2.67787
0.0785043
0.235803
0.393973
0.553609
0.715329
0.8798
1.04779
1.2203
1.39877
1.58559
1.78509
2.00529
2.26013
2.56719
2.90835
0.0816594
0.245251
0.409663
0.575455
0.743214
0.913579
1.08731
1.2654
1.44939
1.642
1.8485
2.07978
2.35908
2.73788
3.34351
0.0846302
0.254144
0.424418
0.59597
0.769333
0.945076
1.12384
1.30645
1.49408
1.68881
1.89477
2.12106
2.38903
2.7512
3.34548
0.08743
0.262522
0.438312
0.615264
0.793846
0.974527
1.15778
1.34407
1.5339
1.72789
1.92701
2.13355
2.35365
2.6035
2.90907
0.0900735
0.270432
0.451423
0.633462
0.816949
1.00225
1.18966
1.37928
1.57089
1.76344
1.9542
2.13677
2.29767
2.41724
2.54256
0.0925753
0.277918
0.463833
0.650691
0.83884
1.02857
1.22005
1.41319
1.60728
1.8003
1.98716
2.15517
2.27047
2.22714
1.61172
0.094949
0.285021
0.475614
0.667062
0.859681
1.05373
1.24937
1.44649
1.64446
1.84149
2.03328
2.21034
2.35349
2.43445
2.49207
0.0972069
0.291779
0.486827
0.68266
0.879578
1.07786
1.27771
1.47926
1.68235
1.88637
2.08973
2.28921
2.47976
2.65813
2.8364
0.0993598
0.298224
0.497521
0.697542
0.898581
1.10094
1.30495
1.51101
1.71966
1.93176
2.14895
2.37443
2.6146
2.882
3.20671
0.101418
0.304384
0.507741
0.711757
0.916717
1.12294
1.33084
1.54104
1.75461
1.97367
2.20249
2.4496
2.73063
3.06622
3.43943
0.103391
0.310288
0.51753
0.725358
0.934026
1.14384
1.3552
1.56879
1.78583
2.00887
2.2434
2.50135
2.80889
3.22448
3.89148
0.10529
0.315968
0.526943
0.738414
0.950593
1.16372
1.37809
1.5942
1.81293
2.03616
2.26814
2.51882
2.81222
3.20832
3.86725
0.107126
0.32146
0.536038
0.751019
0.966555
1.18279
1.39985
1.61786
1.83697
2.05744
2.27999
2.50679
2.74433
3.0098
3.32752
0.108911
0.326798
0.544882
0.76328
0.982086
1.20135
1.42101
1.64083
1.86013
2.07734
2.28899
2.48746
2.65712
2.77516
2.89389
0.110655
0.332018
0.553536
0.775298
0.997355
1.21969
1.44214
1.66423
1.88479
2.10117
2.30723
2.48831
2.60584
2.54019
1.82591
0.112367
0.337146
0.562051
0.787151
1.01248
1.23802
1.46359
1.68874
1.91241
2.13221
2.34291
2.53345
2.68184
2.75579
2.79796
0.114055
0.342203
0.570459
0.798886
1.02752
1.25638
1.4854
1.71436
1.94279
2.16962
2.3927
2.60803
2.80959
2.99363
3.17491
0.115723
0.347203
0.578779
0.810514
1.04247
1.27471
1.50731
1.74042
1.97433
2.20968
2.44794
2.69233
2.94963
3.23352
3.57689
0.117374
0.352152
0.587017
0.822031
1.05727
1.29284
1.52894
1.766
2.00493
2.24778
2.49901
2.76782
3.07132
3.43227
3.83174
0.119011
0.357057
0.59518
0.833435
1.07189
1.31067
1.54998
1.79034
2.03286
2.28013
2.53795
2.81936
3.15322
3.60442
4.33238
0.120636
0.361927
0.603281
0.844739
1.08635
1.32818
1.57038
1.81325
2.05758
2.30521
2.56061
2.83463
3.15376
3.58456
4.30507
0.122251
0.366771
0.611339
0.85598
1.1007
1.34551
1.59036
1.83522
2.08006
2.32494
2.57045
2.81875
3.07683
3.36369
3.70674
0.123861
0.371598
0.619376
0.867203
1.11506
1.36286
1.61042
1.85729
2.10256
2.34431
2.57845
2.79625
2.98001
3.10396
3.22591
0.125466
0.376415
0.627406
0.878448
1.1295
1.38046
1.63101
1.88052
2.12757
2.36903
2.59789
2.79757
2.92477
2.84576
2.04121
0.127066
0.381219
0.635431
0.889723
1.14407
1.39839
1.6524
1.90554
2.15651
2.40254
2.63768
2.84937
3.01281
3.09157
3.13285
0.128655
0.385998
0.64343
0.900999
1.15873
1.41659
1.67448
1.93213
2.18894
2.44368
2.69385
2.93486
3.15972
3.36355
3.56051
0.130229
0.390731
0.651362
0.912205
1.17334
1.43483
1.69679
1.95936
2.22287
2.48803
2.75646
3.03173
3.32133
3.64045
4.02626
0.131778
0.395391
0.659176
0.923251
1.18774
1.45282
1.71874
1.98602
2.25571
2.53016
2.81439
3.11878
3.46257
3.87118
4.32179
0.133293
0.399949
0.666818
0.934047
1.2018
1.47028
1.73983
2.01106
2.28532
2.56556
2.85841
3.17861
3.55888
4.07292
4.90255
0.134763
0.404374
0.674237
0.944521
1.2154
1.48707
1.7598
2.03407
2.31083
2.59228
2.88352
3.19689
3.56242
4.05566
4.87809
0.136181
0.40864
0.681391
0.95462
1.2285
1.50318
1.77878
2.05541
2.33315
2.61224
2.89338
3.1791
3.47735
3.80996
4.20943
0.137535
0.41272
0.688242
0.964308
1.24109
1.51871
1.79712
2.07603
2.35461
2.63082
2.90015
3.15277
3.3685
3.51798
3.66672
0.138816
0.416581
0.69474
0.973536
1.25317
1.53374
1.81516
2.09696
2.37775
2.65423
2.91863
3.15221
3.30573
3.22666
2.32207
0.140009
0.420184
0.700824
0.982222
1.26463
1.54823
1.83302
2.11864
2.40395
2.68609
2.95858
3.20741
3.40454
3.50874
3.57439
0.141098
0.423478
0.706407
0.990242
1.27532
1.56196
1.85037
2.14061
2.43239
2.72468
3.01505
3.29867
3.56795
3.81775
4.06408
0.142065
0.426407
0.711386
0.997433
1.28499
1.57451
1.8665
2.16157
2.46052
2.76465
3.07629
3.40004
3.74499
4.12928
4.59676
0.14289
0.428908
0.71565
1.00361
1.29333
1.5854
1.88057
2.17989
2.48511
2.79945
3.1292
3.4868
3.89482
4.38319
4.92811
0.143552
0.430922
0.71909
1.00861
1.30009
1.5942
1.89181
2.19418
2.50344
2.82358
3.16283
3.53867
3.98894
4.59797
5.57212
0.144036
0.432395
0.721614
1.01229
1.30506
1.60061
1.8998
2.20376
2.51425
2.8345
3.17115
3.53899
3.97289
4.55934
5.52909
0.144327
0.433283
0.72315
1.01455
1.30813
1.60456
1.90454
2.20885
2.51833
2.83409
3.15789
3.49359
3.851
4.25466
4.73621
0.144412
0.433553
0.723645
1.01533
1.30927
1.60608
1.90634
2.2104
2.51811
2.82813
3.13646
3.43324
3.69706
3.89603
4.10399
0.144282
0.433174
0.723054
1.01459
1.30845
1.60526
1.90555
2.20947
2.51633
2.82339
3.12312
3.39591
3.58821
3.53127
2.56434
0.143928
0.432123
0.721335
1.01226
1.30561
1.60209
1.90229
2.20655
2.51444
2.82379
3.12857
3.41461
3.65247
3.79857
3.91486
0.143345
0.430377
0.718447
1.00828
1.30065
1.59636
1.89627
2.20116
2.51157
2.82738
3.14711
3.46689
3.78051
4.0867
4.41557
0.142527
0.427922
0.714354
1.00257
1.29339
1.58778
1.88685
2.19199
2.50498
2.82829
3.16567
3.52356
3.9138
4.35917
4.90952
0.141477
0.424759
0.709044
0.995073
1.2837
1.57598
1.87326
2.17742
2.49128
2.81945
3.17005
3.55786
4.00889
4.55884
5.19723
0.140203
0.420909
0.702542
0.985799
1.27151
1.56075
1.85493
2.15615
2.46768
2.79509
3.14863
3.54838
4.03533
4.69721
5.73946
0.138723
0.416427
0.694929
0.974844
1.25692
1.54212
1.83177
2.12777
2.43309
2.7526
3.09519
3.47843
3.94037
4.57156
5.61597
0.137066
0.411399
0.686353
0.962414
1.24018
1.52044
1.80423
2.09297
2.38867
2.69413
3.01358
3.35394
3.72793
4.15905
4.65679
0.135274
0.40595
0.677025
0.948822
1.22175
1.49634
1.77328
2.05339
2.3375
2.62598
2.91752
3.20619
3.47585
3.70036
3.95361
0.133396
0.400233
0.667212
0.934467
1.20219
1.47064
1.74016
2.01106
2.28333
2.55573
2.82349
3.07173
3.25516
3.22181
2.35999
0.131491
0.394424
0.657221
0.919809
1.18215
1.44424
1.70612
1.96782
2.22908
2.48873
2.74307
2.98238
3.18503
3.31866
3.4457
0.12962
0.388719
0.647389
0.905345
1.1623
1.41801
1.67225
1.92491
2.17598
2.42544
2.67313
2.91857
3.16285
3.42018
3.76233
0.127851
0.383318
0.638067
0.891591
1.14335
1.39282
1.6395
1.88315
2.12401
2.36341
2.60477
2.85566
3.13165
3.46284
3.89907
0.126248
0.378422
0.629606
0.879076
1.12603
1.36958
1.60889
1.84334
2.07308
2.30002
2.52982
2.77536
3.06216
3.43262
3.92922
0.124871
0.374219
0.622346
0.868326
1.11107
1.34932
1.58168
1.80684
2.02412
2.23468
2.44396
2.66648
2.9346
3.31487
3.93659
0.123771
0.370869
0.616588
0.859833
1.09926
1.33317
1.55949
1.77583
1.97984
2.17023
2.34896
2.52597
2.72921
3.02949
3.62943
0.122979
0.368483
0.612553
0.854005
1.09129
1.32231
1.54425
1.75339
1.94504
2.1139
2.25517
2.36731
2.45645
2.53608
2.56599
0.122505
0.367095
0.610344
0.85108
1.08767
1.31777
1.53792
1.7431
1.92607
2.07673
2.18165
2.22466
2.19034
2.07723
1.96717
0.122323
0.36664
0.609883
0.851036
1.08858
1.32014
1.54199
1.74823
1.92955
2.07135
2.15116
2.13577
1.97895
1.61631
0.904052
0.122371
0.366933
0.610874
0.853502
1.09364
1.32926
1.55691
1.77068
1.96048
2.10901
2.1868
2.14515
1.91053
1.39822
0.601951
0.122545
0.367656
0.612775
0.857696
1.10183
1.34392
1.58146
1.80977
2.02007
2.19581
2.30541
2.28859
2.03495
1.37735
0.275356
0.122703
0.368373
0.614813
0.862432
1.11145
1.36172
1.61242
1.86137
2.10368
2.32857
2.51187
2.59655
2.43993
1.66507
-0.741651
0.122676
0.368555
0.616029
0.866191
1.12019
1.37922
1.64459
1.91759
2.1994
2.49026
2.78684
3.07213
3.27421
3.08601
1.12619
0.122282
0.367628
0.615373
0.867279
1.12541
1.39231
1.67143
1.96771
2.28886
2.64802
3.06977
3.60558
4.37939
5.73693
8.78378
8.61949
5.42727
4.04875
3.28637
2.77285
2.37767
2.04684
1.75468
1.48755
1.23743
0.999248
0.769549
0.545789
0.325971
0.108412
0.506164
2.63457
2.88138
2.71617
2.46392
2.19988
1.94142
1.69171
1.45033
1.21605
0.987554
0.7636
0.543063
0.324903
0.108147
-1.43405
1.14861
2.00008
2.20639
2.16318
2.01824
1.82996
1.62295
1.40818
1.19066
0.9727
0.755275
0.538682
0.322859
0.107559
-0.211175
0.864838
1.56676
1.86987
1.93312
1.86671
1.73152
1.55962
1.36794
1.16557
0.957472
0.74637
0.533762
0.320449
0.106843
-0.0288158
0.840832
1.41036
1.69997
1.79313
1.76298
1.65859
1.51003
1.33513
1.14447
0.944326
0.738508
0.529332
0.318243
0.10618
0.278962
1.02524
1.44837
1.66653
1.73881
1.71081
1.61636
1.47874
1.31328
1.12994
0.935123
0.732978
0.52623
0.316714
0.105725
1.22531
1.43407
1.62875
1.73444
1.75415
1.70482
1.60413
1.46678
1.30386
1.12339
0.931013
0.730647
0.525054
0.316208
0.10559
1.76769
1.85271
1.87096
1.86213
1.81747
1.73452
1.61738
1.47257
1.30664
1.12513
0.932457
0.731954
0.526142
0.316936
0.105846
2.74535
2.31776
2.13201
2.01477
1.90742
1.78799
1.64986
1.49307
1.32024
1.13465
0.939348
0.736956
0.529594
0.318977
0.106523
3.06624
2.61493
2.34554
2.16061
2.00579
1.85447
1.69531
1.52471
1.34274
1.15091
0.95118
0.745423
0.535316
0.322298
0.107613
3.1925
2.78582
2.50046
2.2856
2.10176
1.92643
1.74872
1.56428
1.3721
1.1727
0.967214
0.756924
0.54307
0.326781
0.109081
3.23107
2.8725
2.60649
2.3891
2.19185
2.00007
1.80683
1.60925
1.4065
1.19874
0.986604
0.770917
0.552526
0.332252
0.110872
3.20212
2.89498
2.67879
2.47868
2.2782
2.07473
1.86797
1.65785
1.4444
1.22784
1.00849
0.786806
0.563302
0.338498
0.112919
2.96733
2.85435
2.73997
2.56861
2.36665
2.1517
1.93147
1.70878
1.48452
1.2589
1.03201
0.80398
0.574993
0.345291