/*--------------------------------*- C++ -*----------------------------------*\
| =========                 |                                                 |
| \\      /  F ield         | OpenFOAM: The Open Source CFD Toolbox           |
|  \\    /   O peration     | Version:  5.x                                   |
|   \\  /    A nd           | Web:      www.OpenFOAM.org                      |
|    \\/     M anipulation  |                                                 |
\*---------------------------------------------------------------------------*/
FoamFile
{
    version     2.0;
    format      ascii;
    class       volScalarField;
    location    "4.2";
    object      T;
}
// * * * * * * * * * * * * * * * * * * * * * * * * * * * * * * * * * * * * * //

dimensions      [0 0 0 1 0 0 0];

internalField   nonuniform List<scalar> 
6300
(
322.751
322.254
321.757
321.26
320.764
320.269
319.775
319.282
318.791
318.301
317.813
317.327
316.843
316.362
315.882
322.751
322.254
321.756
321.259
320.763
320.268
319.774
319.281
318.789
318.299
317.811
317.325
316.841
316.359
315.88
322.751
322.253
321.755
321.258
320.761
320.266
319.771
319.278
318.786
318.295
317.807
317.321
316.836
316.354
315.875
322.751
322.252
321.754
321.256
320.759
320.263
319.767
319.273
318.781
318.29
317.801
317.314
316.829
316.347
315.867
322.75
322.251
321.752
321.253
320.755
320.258
319.762
319.267
318.774
318.282
317.793
317.305
316.82
316.337
315.857
322.75
322.25
321.75
321.25
320.751
320.253
319.756
319.26
318.766
318.273
317.782
317.294
316.808
316.325
315.844
322.749
322.248
321.747
321.246
320.746
320.247
319.748
319.251
318.755
318.262
317.77
317.28
316.794
316.31
315.829
322.749
322.246
321.744
321.241
320.74
320.239
319.739
319.241
318.743
318.248
317.755
317.264
316.776
316.292
315.81
322.748
322.244
321.74
321.236
320.733
320.231
319.729
319.229
318.73
318.232
317.737
317.245
316.756
316.27
315.789
322.747
322.241
321.736
321.231
320.726
320.222
319.718
319.215
318.714
318.214
317.717
317.222
316.731
316.245
315.763
322.746
322.239
321.732
321.225
320.718
320.212
319.706
319.201
318.697
318.194
317.694
317.196
316.703
316.214
315.733
322.745
322.236
321.727
321.218
320.71
320.201
319.693
319.185
318.678
318.172
317.668
317.166
316.668
316.177
315.695
322.745
322.234
321.723
321.212
320.701
320.19
319.679
319.169
318.658
318.148
317.639
317.131
316.628
316.131
315.647
322.744
322.231
321.718
321.206
320.693
320.179
319.666
319.152
318.638
318.123
317.608
317.093
316.58
316.073
315.581
322.743
322.229
321.714
321.199
320.684
320.169
319.653
319.136
318.618
318.098
317.577
317.053
316.527
315.999
315.479
315.445
315.05
314.656
314.264
313.875
313.487
313.101
312.718
312.338
311.959
311.584
311.212
310.843
310.477
310.114
309.755
309.399
309.047
308.699
308.355
308.014
307.677
307.344
307.014
306.687
306.364
306.045
305.728
305.414
305.103
304.795
304.489
304.186
303.885
303.586
303.29
302.995
302.702
302.411
302.122
301.835
301.549
301.265
300.983
300.702
300.423
300.145
299.869
299.595
299.322
299.05
298.78
298.512
298.244
297.978
297.712
297.448
297.184
296.921
296.658
296.396
296.134
295.873
295.611
295.35
295.088
294.827
294.565
294.303
294.041
293.778
293.514
293.25
292.985
292.72
292.453
292.185
291.917
291.647
291.376
291.104
290.83
290.554
290.278
289.999
289.719
289.437
289.153
288.867
288.58
315.443
315.047
314.653
314.261
313.871
313.484
313.098
312.715
312.334
311.955
311.58
311.207
310.838
310.472
310.109
309.75
309.394
309.042
308.694
308.349
308.009
307.672
307.338
307.009
306.682
306.36
306.04
305.723
305.41
305.099
304.791
304.486
304.183
303.882
303.583
303.287
302.992
302.699
302.409
302.119
301.832
301.546
301.262
300.98
300.699
300.42
300.143
299.867
299.593
299.32
299.048
298.778
298.51
298.242
297.976
297.711
297.446
297.183
296.92
296.657
296.395
296.134
295.872
295.611
295.35
295.088
294.827
294.565
294.304
294.041
293.778
293.515
293.251
292.986
292.721
292.454
292.187
291.918
291.649
291.378
291.106
290.832
290.557
290.28
290.001
289.721
289.439
289.156
288.87
288.582
315.437
315.042
314.648
314.256
313.865
313.477
313.091
312.707
312.326
311.947
311.571
311.198
310.828
310.462
310.099
309.739
309.383
309.031
308.683
308.338
307.998
307.661
307.328
306.998
306.672
306.35
306.031
305.715
305.402
305.091
304.784
304.479
304.176
303.875
303.577
303.281
302.986
302.694
302.403
302.114
301.827
301.541
301.257
300.975
300.694
300.415
300.138
299.862
299.588
299.315
299.044
298.774
298.506
298.239
297.973
297.708
297.444
297.18
296.918
296.656
296.394
296.133
295.872
295.611
295.35
295.089
294.827
294.566
294.304
294.042
293.78
293.517
293.253
292.988
292.723
292.457
292.19
291.922
291.652
291.381
291.109
290.836
290.561
290.284
290.006
289.726
289.444
289.161
288.875
288.588
315.43
315.034
314.639
314.247
313.856
313.468
313.081
312.697
312.314
311.935
311.558
311.184
310.814
310.447
310.083
309.723
309.367
309.015
308.666
308.322
307.981
307.645
307.312
306.983
306.657
306.335
306.017
305.701
305.389
305.079
304.772
304.468
304.166
303.866
303.568
303.272
302.978
302.685
302.395
302.106
301.819
301.534
301.25
300.967
300.687
300.408
300.131
299.855
299.581
299.308
299.038
298.768
298.5
298.233
297.968
297.703
297.44
297.177
296.915
296.653
296.392
296.131
295.87
295.61
295.349
295.089
294.828
294.567
294.306
294.044
293.782
293.519
293.256
292.992
292.727
292.461
292.194
291.926
291.657
291.387
291.115
290.842
290.568
290.291
290.013
289.734
289.452
289.169
288.883
288.596
315.419
315.023
314.628
314.236
313.845
313.455
313.068
312.682
312.299
311.919
311.541
311.166
310.794
310.426
310.062
309.702
309.345
308.993
308.644
308.3
307.959
307.623
307.291
306.962
306.637
306.316
305.998
305.684
305.372
305.063
304.757
304.453
304.152
303.853
303.555
303.26
302.966
302.674
302.384
302.096
301.809
301.523
301.24
300.957
300.677
300.398
300.121
299.845
299.571
299.299
299.029
298.76
298.492
298.226
297.961
297.698
297.435
297.173
296.911
296.65
296.39
296.129
295.869
295.609
295.349
295.089
294.829
294.568
294.307
294.046
293.784
293.522
293.259
292.996
292.731
292.466
292.2
291.933
291.664
291.394
291.123
290.85
290.576
290.301
290.023
289.744
289.463
289.179
288.894
288.606
315.406
315.01
314.615
314.222
313.83
313.44
313.052
312.665
312.28
311.898
311.519
311.143
310.77
310.401
310.036
309.674
309.317
308.964
308.616
308.271
307.931
307.595
307.263
306.936
306.612
306.292
305.975
305.662
305.351
305.044
304.738
304.436
304.135
303.837
303.54
303.245
302.952
302.661
302.371
302.083
301.796
301.511
301.227
300.945
300.664
300.385
300.108
299.833
299.559
299.287
299.017
298.749
298.482
298.217
297.953
297.69
297.428
297.167
296.907
296.646
296.387
296.127
295.867
295.608
295.349
295.089
294.83
294.57
294.309
294.049
293.788
293.526
293.264
293.001
292.737
292.473
292.207
291.94
291.673
291.403
291.133
290.861
290.587
290.312
290.035
289.757
289.476
289.193
288.908
288.62
315.39
314.994
314.599
314.205
313.813
313.422
313.033
312.644
312.258
311.874
311.492
311.114
310.74
310.369
310.003
309.641
309.283
308.93
308.581
308.237
307.897
307.561
307.23
306.904
306.581
306.262
305.947
305.635
305.326
305.02
304.716
304.415
304.116
303.818
303.522
303.228
302.936
302.645
302.355
302.068
301.781
301.496
301.212
300.93
300.649
300.37
300.093
299.817
299.544
299.273
299.004
298.736
298.47
298.206
297.943
297.681
297.421
297.161
296.901
296.642
296.383
296.124
295.866
295.607
295.348
295.089
294.831
294.571
294.312
294.052
293.792
293.531
293.269
293.007
292.744
292.48
292.216
291.95
291.683
291.414
291.145
290.873
290.601
290.326
290.05
289.772
289.492
289.21
288.925
288.638
315.372
314.976
314.581
314.187
313.795
313.403
313.011
312.621
312.232
311.845
311.461
311.081
310.704
310.332
309.965
309.602
309.243
308.889
308.54
308.196
307.856
307.521
307.191
306.866
306.545
306.228
305.914
305.604
305.297
304.992
304.69
304.391
304.093
303.797
303.502
303.209
302.917
302.626
302.337
302.05
301.764
301.479
301.195
300.913
300.632
300.352
300.074
299.799
299.526
299.255
298.987
298.721
298.456
298.193
297.931
297.671
297.412
297.153
296.895
296.637
296.379
296.121
295.863
295.605
295.348
295.09
294.832
294.574
294.315
294.056
293.797
293.536
293.275
293.014
292.752
292.489
292.226
291.961
291.695
291.427
291.158
290.888
290.616
290.343
290.068
289.791
289.511
289.23
288.945
288.658
315.351
314.955
314.561
314.168
313.775
313.382
312.989
312.596
312.203
311.812
311.425
311.041
310.662
310.288
309.919
309.556
309.196
308.842
308.492
308.147
307.808
307.474
307.145
306.822
306.503
306.188
305.876
305.568
305.263
304.961
304.661
304.364
304.068
303.773
303.479
303.187
302.895
302.605
302.317
302.031
301.745
301.46
301.176
300.893
300.611
300.331
300.053
299.777
299.504
299.234
298.967
298.702
298.439
298.178
297.918
297.659
297.402
297.145
296.888
296.632
296.375
296.118
295.861
295.604
295.347
295.09
294.833
294.576
294.319
294.061
293.802
293.542
293.282
293.022
292.761
292.5
292.237
291.974
291.709
291.442
291.174
290.905
290.634
290.361
290.088
289.812
289.534
289.254
288.97
288.683
315.326
314.932
314.54
314.148
313.756
313.362
312.966
312.569
312.171
311.775
311.382
310.994
310.612
310.237
309.867
309.503
309.143
308.787
308.437
308.091
307.752
307.419
307.092
306.771
306.455
306.142
305.834
305.528
305.225
304.926
304.629
304.335
304.041
303.748
303.455
303.163
302.872
302.582
302.295
302.009
301.725
301.441
301.156
300.872
300.589
300.307
300.027
299.751
299.478
299.209
298.944
298.681
298.42
298.16
297.902
297.645
297.39
297.136
296.882
296.627
296.372
296.116
295.859
295.602
295.346
295.09
294.835
294.579
294.324
294.067
293.808
293.549
293.29
293.03
292.77
292.511
292.251
291.989
291.725
291.46
291.192
290.923
290.653
290.382
290.111
289.837
289.561
289.282
288.999
288.713
315.298
314.906
314.517
314.129
313.739
313.345
312.946
312.543
312.138
311.733
311.333
310.939
310.553
310.176
309.807
309.443
309.083
308.726
308.373
308.026
307.686
307.354
307.03
306.713
306.401
306.092
305.786
305.483
305.183
304.887
304.595
304.304
304.013
303.722
303.43
303.137
302.845
302.556
302.27
301.986
301.704
301.42
301.136
300.85
300.564
300.279
299.997
299.719
299.446
299.179
298.917
298.657
298.398
298.141
297.884
297.63
297.377
297.126
296.875
296.623
296.369
296.113
295.856
295.599
295.343
295.089
294.836
294.584
294.33
294.074
293.816
293.557
293.297
293.038
292.78
292.523
292.266
292.007
291.744
291.479
291.212
290.943
290.673
290.405
290.136
289.866
289.592
289.315
289.034
288.748
315.263
314.877
314.493
314.112
313.727
313.334
312.932
312.52
312.103
311.686
311.274
310.871
310.482
310.105
309.739
309.378
309.019
308.659
308.302
307.951
307.609
307.278
306.959
306.648
306.343
306.038
305.734
305.432
305.135
304.843
304.557
304.273
303.987
303.697
303.404
303.11
302.815
302.525
302.241
301.961
301.683
301.402
301.118
300.829
300.538
300.246
299.959
299.679
299.407
299.143
298.885
298.631
298.375
298.12
297.864
297.611
297.362
297.116
296.87
296.622
296.37
296.113
295.854
295.595
295.338
295.086
294.837
294.589
294.339
294.084
293.826
293.564
293.303
293.044
292.788
292.536
292.284
292.028
291.768
291.502
291.233
290.962
290.693
290.427
290.163
289.898
289.629
289.355
289.075
288.79
315.22
314.843
314.467
314.1
313.728
313.336
312.93
312.505
312.071
311.629
311.201
310.785
310.393
310.018
309.663
309.313
308.953
308.589
308.22
307.862
307.515
307.187
306.873
306.576
306.283
305.983
305.681
305.374
305.078
304.791
304.517
304.245
303.965
303.678
303.381
303.082
302.779
302.487
302.204
301.934
301.666
301.389
301.105
300.81
300.511
300.207
299.913
299.627
299.356
299.097
298.85
298.605
298.353
298.098
297.839
297.587
297.341
297.105
296.87
296.626
296.376
296.116
295.852
295.586
295.327
295.077
294.837
294.599
294.353
294.1
293.838
293.573
293.304
293.044
292.791
292.549
292.307
292.057
291.799
291.53
291.257
290.979
290.709
290.445
290.191
289.937
289.673
289.403
289.123
288.84
315.162
314.806
314.428
314.095
313.756
313.359
312.958
312.5
312.05
311.553
311.109
310.665
310.279
309.902
309.58
309.26
308.893
308.528
308.122
307.758
307.394
307.075
306.764
306.497
306.233
305.931
305.632
305.302
305.009
304.72
304.473
304.229
303.951
303.673
303.362
303.058
302.728
302.436
302.149
301.904
301.662
301.386
301.109
300.797
300.491
300.155
299.854
299.553
299.29
299.032
298.81
298.589
298.335
298.083
297.803
297.553
297.306
297.093
296.882
296.64
296.396
296.123
295.856
295.564
295.305
295.052
294.834
294.62
294.376
294.131
293.856
293.587
293.294
293.034
292.779
292.56
292.343
292.095
291.846
291.565
291.289
290.986
290.716
290.449
290.218
289.99
289.727
289.465
289.174
288.902
315.067
314.799
314.326
314.097
313.867
313.391
313.064
312.486
312.097
311.399
311.017
310.462
310.152
309.709
309.492
309.276
308.831
308.523
307.964
307.655
307.206
306.953
306.592
306.414
306.237
305.875
305.626
305.178
304.934
304.589
304.423
304.262
303.938
303.717
303.331
303.074
302.621
302.376
302.033
301.868
301.708
301.385
301.163
300.776
300.515
300.05
299.795
299.424
299.216
298.916
298.769
298.621
298.316
298.105
297.724
297.516
297.221
297.078
296.938
296.654
296.46
296.121
295.894
295.493
295.277
294.974
294.827
294.685
294.399
294.204
293.863
293.636
293.235
293.018
292.714
292.567
292.424
292.136
291.938
291.592
291.359
290.944
290.719
290.399
290.244
290.091
289.781
289.569
289.197
288.989
288.261
287.911
287.559
287.204
286.846
286.487
286.125
285.762
285.397
285.03
284.663
284.294
283.925
283.555
283.185
288.264
287.914
287.561
287.206
286.849
286.489
286.127
285.763
285.398
285.032
284.664
284.295
283.926
283.556
283.185
288.269
287.919
287.566
287.211
286.853
286.493
286.131
285.767
285.401
285.034
284.666
284.296
283.927
283.556
283.185
288.277
287.927
287.574
287.218
286.859
286.499
286.136
285.771
285.405
285.037
284.668
284.299
283.928
283.557
283.186
288.288
287.937
287.584
287.227
286.868
286.507
286.143
285.778
285.41
285.042
284.672
284.302
283.93
283.558
283.186
288.302
287.951
287.596
287.239
286.879
286.517
286.152
285.786
285.417
285.048
284.677
284.305
283.933
283.56
283.187
288.319
287.967
287.612
287.254
286.893
286.529
286.163
285.795
285.425
285.055
284.682
284.309
283.936
283.562
283.187
288.339
287.987
287.631
287.272
286.909
286.544
286.176
285.806
285.435
285.062
284.689
284.314
283.939
283.564
283.188
288.364
288.011
287.654
287.292
286.928
286.56
286.191
285.819
285.446
285.071
284.696
284.32
283.943
283.566
283.189
288.393
288.039
287.68
287.316
286.949
286.579
286.207
285.833
285.458
285.081
284.704
284.326
283.948
283.569
283.19
288.428
288.072
287.71
287.344
286.973
286.6
286.225
285.849
285.471
285.092
284.713
284.333
283.952
283.571
283.191
288.47
288.111
287.746
287.375
287
286.624
286.245
285.866
285.485
285.104
284.722
284.34
283.957
283.574
283.191
288.52
288.158
287.786
287.409
287.03
286.648
286.266
285.883
285.5
285.116
284.732
284.347
283.962
283.578
283.193
288.584
288.213
287.832
287.446
287.06
286.674
286.288
285.901
285.515
285.128
284.742
284.355
283.968
283.581
283.194
288.673
288.279
287.88
287.485
287.091
286.7
286.309
285.92
285.53
285.141
284.752
284.363
283.973
283.584
283.195
322.742
322.226
321.71
321.194
320.677
320.16
319.641
319.122
318.6
318.077
317.55
317.019
316.48
315.923
315.322
322.742
322.224
321.707
321.189
320.671
320.152
319.632
319.11
318.586
318.06
317.53
316.994
316.448
315.885
315.285
322.741
322.223
321.704
321.185
320.666
320.145
319.623
319.1
318.574
318.046
317.513
316.975
316.429
315.873
315.306
322.74
322.221
321.702
321.182
320.661
320.139
319.616
319.091
318.564
318.034
317.5
316.962
316.418
315.867
315.312
322.74
322.22
321.699
321.178
320.657
320.134
319.61
319.084
318.556
318.025
317.491
316.953
316.411
315.865
315.317
322.74
322.219
321.697
321.176
320.653
320.129
319.605
319.078
318.549
318.018
317.484
316.947
316.406
315.863
315.318
322.739
322.218
321.696
321.173
320.65
320.126
319.601
319.074
318.545
318.013
317.48
316.943
316.404
315.862
315.319
322.739
322.217
321.695
321.172
320.648
320.124
319.598
319.071
318.541
318.01
317.477
316.941
316.403
315.863
315.321
322.739
322.217
321.694
321.171
320.647
320.122
319.596
319.069
318.54
318.009
317.476
316.941
316.404
315.865
315.323
322.739
322.216
321.693
321.17
320.646
320.121
319.595
319.068
318.539
318.009
317.476
316.942
316.406
315.868
315.329
322.739
322.216
321.693
321.17
320.646
320.121
319.595
319.068
318.54
318.01
317.478
316.945
316.409
315.872
315.333
322.739
322.216
321.694
321.17
320.647
320.122
319.596
319.07
318.542
318.012
317.481
316.948
316.414
315.879
315.342
322.739
322.217
321.694
321.171
320.648
320.123
319.598
319.072
318.544
318.015
317.485
316.953
316.42
315.885
315.348
322.739
322.217
321.695
321.172
320.649
320.125
319.6
319.075
318.548
318.02
317.49
316.959
316.427
315.893
315.36
322.739
322.218
321.696
321.174
320.651
320.128
319.604
319.078
318.552
318.025
317.496
316.966
316.434
315.901
315.365
322.74
322.218
321.697
321.176
320.654
320.131
319.607
319.083
318.558
318.031
317.503
316.974
316.443
315.91
315.372
322.74
322.219
321.699
321.178
320.656
320.134
319.612
319.088
318.564
318.038
317.511
316.983
316.454
315.922
315.389
322.74
322.22
321.701
321.18
320.66
320.139
319.617
319.094
318.57
318.046
317.52
316.993
316.465
315.935
315.401
322.741
322.222
321.703
321.183
320.663
320.143
319.622
319.101
318.578
318.055
317.53
317.005
316.478
315.951
315.425
322.741
322.223
321.705
321.186
320.668
320.148
319.628
319.108
318.586
318.064
317.541
317.016
316.491
315.966
315.439
322.742
322.224
321.707
321.19
320.672
320.154
319.635
319.115
318.595
318.074
317.552
317.029
316.505
315.981
315.46
322.742
322.226
321.71
321.193
320.677
320.159
319.642
319.123
318.604
318.084
317.563
317.042
316.519
315.995
315.47
322.743
322.228
321.713
321.197
320.682
320.166
319.649
319.132
318.614
318.095
317.576
317.055
316.533
316.009
315.481
322.743
322.229
321.716
321.201
320.687
320.172
319.657
319.141
318.624
318.107
317.589
317.07
316.549
316.027
315.503
322.744
322.231
321.719
321.206
320.693
320.179
319.665
319.151
318.635
318.12
317.603
317.085
316.566
316.045
315.519
322.744
322.233
321.722
321.21
320.698
320.186
319.674
319.161
318.647
318.133
317.617
317.102
316.585
316.066
315.548
322.745
322.235
321.725
321.215
320.705
320.194
319.683
319.171
318.659
318.146
317.633
317.119
316.604
316.088
315.568
322.746
322.237
321.729
321.22
320.711
320.201
319.692
319.182
318.671
318.16
317.648
317.136
316.624
316.112
315.604
322.746
322.239
321.732
321.225
320.717
320.209
319.701
319.193
318.684
318.174
317.664
317.154
316.644
316.134
315.623
322.747
322.242
321.736
321.23
320.724
320.218
319.711
319.204
318.697
318.189
317.68
317.172
316.663
316.155
315.652
322.748
322.244
321.74
321.235
320.731
320.226
319.721
319.216
318.71
318.204
317.697
317.19
316.682
316.174
315.666
322.749
322.246
321.744
321.241
320.738
320.235
319.731
319.228
318.723
318.219
317.713
317.208
316.701
316.192
315.679
322.75
322.249
321.748
321.247
320.745
320.244
319.742
319.24
318.737
318.234
317.731
317.226
316.721
316.214
315.707
322.75
322.251
321.752
321.252
320.753
320.253
319.753
319.252
318.751
318.25
317.748
317.246
316.742
316.237
315.726
322.751
322.254
321.756
321.258
320.76
320.262
319.764
319.265
318.766
318.266
317.766
317.266
316.765
316.262
315.761
322.752
322.256
321.76
321.264
320.768
320.272
319.775
319.278
318.781
318.283
317.785
317.287
316.788
316.288
315.784
322.753
322.259
321.765
321.27
320.776
320.281
319.786
319.291
318.796
318.3
317.804
317.308
316.811
316.316
315.826
322.754
322.261
321.769
321.276
320.784
320.291
319.798
319.304
318.811
318.317
317.823
317.329
316.835
316.341
315.848
322.755
322.264
321.774
321.283
320.792
320.301
319.81
319.318
318.826
318.334
317.842
317.349
316.857
316.366
315.881
322.756
322.267
321.778
321.289
320.8
320.311
319.822
319.332
318.842
318.352
317.861
317.37
316.879
316.388
315.896
322.757
322.27
321.783
321.296
320.809
320.321
319.834
319.346
318.858
318.369
317.88
317.391
316.901
316.409
315.912
322.758
322.273
321.787
321.302
320.817
320.332
319.846
319.36
318.874
318.387
317.9
317.412
316.924
316.434
315.943
322.758
322.275
321.792
321.309
320.826
320.342
319.858
319.374
318.89
318.405
317.92
317.434
316.947
316.459
315.964
322.759
322.278
321.797
321.316
320.834
320.353
319.871
319.389
318.907
318.424
317.941
317.457
316.973
316.487
316.003
322.76
322.281
321.802
321.323
320.843
320.364
319.884
319.404
318.923
318.443
317.962
317.48
316.999
316.516
316.028
322.761
322.284
321.807
321.33
320.852
320.375
319.897
319.419
318.941
318.462
317.983
317.504
317.025
316.547
316.075
322.762
322.287
321.812
321.337
320.861
320.386
319.91
319.434
318.958
318.481
318.005
317.528
317.051
316.576
316.1
322.763
322.29
321.817
321.344
320.871
320.397
319.923
319.449
318.975
318.501
318.026
317.551
317.077
316.604
316.137
322.765
322.293
321.822
321.351
320.88
320.409
319.937
319.465
318.993
318.52
318.047
317.574
317.101
316.627
316.154
322.766
322.297
321.828
321.359
320.889
320.42
319.951
319.481
319.011
318.54
318.069
317.598
317.125
316.651
316.171
322.767
322.3
321.833
321.366
320.899
320.432
319.964
319.497
319.029
318.56
318.091
317.622
317.151
316.679
316.206
322.768
322.303
321.838
321.374
320.909
320.444
319.978
319.513
319.047
318.581
318.114
317.647
317.178
316.707
316.23
322.769
322.306
321.844
321.381
320.919
320.456
319.993
319.529
319.066
318.602
318.137
317.672
317.206
316.74
316.273
322.77
322.31
321.849
321.389
320.929
320.468
320.007
319.546
319.085
318.623
318.161
317.699
317.236
316.772
316.302
322.771
322.313
321.855
321.397
320.939
320.48
320.022
319.563
319.104
318.645
318.185
317.725
317.266
316.807
316.355
322.772
322.316
321.861
321.405
320.949
320.493
320.036
319.58
319.123
318.666
318.209
317.752
317.295
316.839
316.383
322.773
322.32
321.866
321.413
320.959
320.505
320.051
319.597
319.143
318.688
318.233
317.778
317.324
316.871
316.425
322.774
322.323
321.872
321.421
320.97
320.518
320.066
319.615
319.162
318.71
318.257
317.804
317.351
316.898
316.444
322.776
322.327
321.878
321.429
320.98
320.531
320.082
319.632
319.182
318.732
318.282
317.831
317.379
316.925
316.464
322.777
322.33
321.884
321.437
320.991
320.544
320.097
319.65
319.203
318.755
318.307
317.858
317.408
316.956
316.504
322.778
322.334
321.89
321.446
321.001
320.557
320.112
319.668
319.223
318.778
318.332
317.886
317.438
316.988
316.531
322.779
322.337
321.896
321.454
321.012
320.57
320.128
319.686
319.244
318.801
318.358
317.915
317.47
317.025
316.581
322.78
322.341
321.902
321.462
321.023
320.583
320.144
319.704
319.264
318.824
318.384
317.944
317.503
317.061
316.614
322.782
322.345
321.908
321.471
321.034
320.597
320.16
319.722
319.285
318.848
318.411
317.974
317.537
317.102
316.674
322.783
322.348
321.914
321.479
321.045
320.61
320.175
319.741
319.306
318.872
318.437
318.003
317.569
317.137
316.706
322.784
322.352
321.92
321.488
321.055
320.623
320.191
319.759
319.327
318.895
318.463
318.032
317.601
317.173
316.752
322.785
322.355
321.926
321.496
321.066
320.637
320.207
319.778
319.348
318.919
318.489
318.06
317.631
317.202
316.774
322.786
322.359
321.932
321.504
321.077
320.65
320.223
319.796
319.369
318.942
318.515
318.088
317.661
317.231
316.795
322.788
322.363
321.938
321.513
321.088
320.663
320.239
319.814
319.39
318.966
318.542
318.117
317.692
317.266
316.839
322.789
322.366
321.944
321.521
321.099
320.677
320.255
319.833
319.411
318.989
318.568
318.146
317.724
317.3
316.869
322.79
322.37
321.95
321.53
321.11
320.69
320.27
319.851
319.432
319.013
318.594
318.176
317.757
317.338
316.921
322.791
322.373
321.956
321.538
321.12
320.703
320.286
319.869
319.453
319.036
318.621
318.205
317.791
317.376
316.955
322.792
322.377
321.961
321.546
321.131
320.716
320.301
319.887
319.473
319.06
318.647
318.235
317.824
317.417
317.017
322.793
322.38
321.967
321.554
321.141
320.729
320.316
319.905
319.493
319.082
318.672
318.263
317.856
317.452
317.049
322.795
322.384
321.973
321.562
321.152
320.741
320.331
319.922
319.513
319.104
318.697
318.291
317.887
317.486
317.094
322.796
322.387
321.978
321.57
321.162
320.754
320.346
319.939
319.532
319.126
318.721
318.317
317.914
317.513
317.115
322.797
322.39
321.984
321.578
321.172
320.766
320.36
319.955
319.551
319.147
318.744
318.342
317.941
317.54
317.134
322.798
322.394
321.989
321.585
321.181
320.778
320.374
319.972
319.569
319.168
318.767
318.367
317.967
317.569
317.172
322.799
322.397
321.995
321.593
321.191
320.789
320.388
319.987
319.587
319.188
318.789
318.391
317.994
317.597
317.197
322.8
322.4
322
321.6
321.2
320.801
320.402
320.003
319.605
319.207
318.81
318.414
318.02
317.626
317.237
322.801
322.403
322.005
321.607
321.21
320.812
320.415
320.018
319.622
319.226
318.831
318.437
318.045
317.654
317.262
322.802
322.406
322.01
321.615
321.219
320.823
320.428
320.033
319.638
319.244
318.851
318.459
318.068
317.682
317.303
322.803
322.409
322.015
321.622
321.228
320.834
320.441
320.048
319.655
319.262
318.87
318.479
318.09
317.704
317.322
322.804
322.412
322.021
321.629
321.237
320.845
320.454
320.062
319.671
319.279
318.888
318.498
318.109
317.724
317.346
322.805
322.415
322.026
321.636
321.246
320.856
320.467
320.077
319.687
319.297
318.906
318.516
318.127
317.739
317.355
322.806
322.418
322.031
321.643
321.255
320.867
320.48
320.091
319.703
319.314
318.924
318.534
318.142
317.751
317.361
322.807
322.421
322.036
321.65
321.264
320.879
320.493
320.106
319.719
319.332
318.943
318.552
318.158
317.762
317.365
322.808
322.425
322.041
321.657
321.274
320.89
320.506
320.122
319.737
319.351
318.963
318.572
318.176
317.774
317.365
322.809
322.428
322.046
321.665
321.283
320.901
320.519
320.137
319.755
319.371
318.985
318.595
318.199
317.79
317.353
322.81
322.431
322.051
321.672
321.292
320.913
320.533
320.154
319.773
319.392
319.009
318.623
318.231
317.825
317.384
288.8
288.343
287.923
287.517
287.118
286.722
286.329
285.936
285.544
285.152
284.761
284.37
283.978
283.587
283.196
288.828
288.375
287.952
287.542
287.14
286.742
286.345
285.95
285.556
285.163
284.769
284.376
283.983
283.59
283.197
288.808
288.387
287.971
287.563
287.159
286.759
286.361
285.964
285.568
285.173
284.777
284.382
283.987
283.592
283.197
288.804
288.394
287.985
287.579
287.176
286.775
286.376
285.977
285.58
285.182
284.785
284.389
283.992
283.595
283.198
288.804
288.401
287.997
287.594
287.191
286.79
286.39
285.99
285.591
285.192
284.793
284.395
283.996
283.598
283.199
288.804
288.408
288.009
287.608
287.206
286.805
286.403
286.003
285.602
285.202
284.801
284.401
284.001
283.6
283.2
288.809
288.418
288.021
287.622
287.22
286.819
286.417
286.015
285.613
285.211
284.809
284.407
284.005
283.603
283.201
288.824
288.432
288.036
287.636
287.235
286.833
286.43
286.027
285.624
285.22
284.817
284.413
284.009
283.606
283.202
288.839
288.449
288.052
287.653
287.251
286.848
286.444
286.039
285.635
285.23
284.824
284.419
284.014
283.608
283.203
288.87
288.471
288.071
287.67
287.267
286.863
286.458
286.052
285.646
285.239
284.832
284.425
284.018
283.611
283.204
288.89
288.493
288.092
287.689
287.284
286.879
286.472
286.065
285.657
285.249
284.84
284.432
284.023
283.614
283.205
288.923
288.517
288.113
287.708
287.302
286.895
286.487
286.078
285.669
285.259
284.848
284.438
284.027
283.616
283.205
288.944
288.54
288.135
287.728
287.321
286.912
286.502
286.092
285.68
285.269
284.857
284.444
284.032
283.619
283.206
288.977
288.565
288.158
287.749
287.34
286.929
286.518
286.106
285.693
285.279
284.865
284.451
284.037
283.622
283.207
288.993
288.588
288.181
287.771
287.36
286.948
286.534
286.12
285.705
285.29
284.874
284.458
284.041
283.625
283.208
289.011
288.612
288.205
287.794
287.381
286.967
286.551
286.135
285.718
285.301
284.883
284.465
284.046
283.628
283.209
289.052
288.643
288.232
287.818
287.403
286.986
286.569
286.15
285.731
285.312
284.892
284.472
284.051
283.631
283.21
289.08
288.674
288.26
287.844
287.426
287.007
286.587
286.166
285.745
285.323
284.901
284.479
284.057
283.634
283.211
289.136
288.711
288.291
287.87
287.449
287.027
286.605
286.182
285.759
285.335
284.911
284.486
284.062
283.637
283.212
289.167
288.745
288.321
287.897
287.473
287.049
286.624
286.198
285.773
285.347
284.92
284.494
284.067
283.64
283.213
289.216
288.781
288.352
287.924
287.497
287.07
286.643
286.215
285.787
285.359
284.93
284.501
284.073
283.644
283.215
289.243
288.812
288.381
287.951
287.522
287.092
286.662
286.232
285.801
285.371
284.94
284.509
284.078
283.647
283.216
289.284
288.844
288.41
287.978
287.546
287.114
286.681
286.249
285.816
285.383
284.95
284.517
284.084
283.65
283.217
289.304
288.871
288.438
288.004
287.57
287.135
286.701
286.266
285.831
285.396
284.96
284.525
284.089
283.654
283.218
289.324
288.899
288.466
288.031
287.594
287.157
286.72
286.283
285.846
285.408
284.97
284.533
284.095
283.657
283.219
289.368
288.932
288.496
288.058
287.619
287.18
286.74
286.3
285.86
285.421
284.981
284.541
284.1
283.66
283.22
289.399
288.966
288.527
288.085
287.644
287.202
286.76
286.318
285.875
285.433
284.991
284.548
284.106
283.664
283.221
289.456
289.004
288.559
288.114
287.669
287.224
286.78
286.335
285.89
285.446
285.001
284.556
284.112
283.667
283.222
289.487
289.039
288.59
288.141
287.694
287.246
286.799
286.352
285.905
285.458
285.011
284.564
284.117
283.67
283.223
289.534
289.074
288.62
288.169
287.718
287.269
286.819
286.37
285.92
285.471
285.022
284.572
284.123
283.674
283.225
289.561
289.105
288.649
288.196
287.743
287.291
286.839
286.387
285.935
285.484
285.032
284.58
284.129
283.677
283.226
289.6
289.135
288.677
288.222
287.767
287.312
286.858
286.404
285.95
285.496
285.042
284.588
284.135
283.681
283.227
289.618
289.161
288.704
288.247
287.79
287.334
286.877
286.421
285.965
285.509
285.052
284.596
284.14
283.684
283.228
289.637
289.187
288.73
288.272
287.814
287.355
286.896
286.438
285.979
285.521
285.063
284.604
284.146
283.688
283.229
289.677
289.217
288.758
288.298
287.837
287.376
286.916
286.455
285.994
285.533
285.073
284.612
284.152
283.691
283.23
289.704
289.248
288.786
288.324
287.861
287.398
286.935
286.472
286.009
285.546
285.083
284.62
284.157
283.694
283.231
289.754
289.282
288.815