/*--------------------------------*- C++ -*----------------------------------*\
| =========                 |                                                 |
| \\      /  F ield         | OpenFOAM: The Open Source CFD Toolbox           |
|  \\    /   O peration     | Version:  5.x                                   |
|   \\  /    A nd           | Web:      www.OpenFOAM.org                      |
|    \\/     M anipulation  |                                                 |
\*---------------------------------------------------------------------------*/
FoamFile
{
    version     2.0;
    format      ascii;
    class       volScalarField;
    location    "1.4";
    object      gradTx;
}
// * * * * * * * * * * * * * * * * * * * * * * * * * * * * * * * * * * * * * //

dimensions      [0 -1 0 1 0 0 0];

internalField   nonuniform List<scalar> 
6300
(
-53.2334
-53.1868
-53.0935
-52.9531
-52.7651
-52.5293
-52.2452
-51.9127
-51.5319
-51.1034
-50.6283
-50.1084
-49.546
-48.9437
-48.3044
-53.2793
-53.2329
-53.1398
-52.9998
-52.8123
-52.5768
-52.2929
-51.9603
-51.5789
-51.1493
-50.6726
-50.1504
-49.5853
-48.9801
-48.3381
-53.3708
-53.3248
-53.2324
-53.0933
-52.9067
-52.6721
-52.3887
-52.0559
-51.6735
-51.2417
-50.7615
-50.2347
-49.664
-49.0528
-48.405
-53.5077
-53.4622
-53.371
-53.2334
-53.0485
-52.8155
-52.5331
-52.2004
-51.8167
-51.3818
-50.8965
-50.3624
-49.7826
-49.1615
-48.504
-53.6892
-53.6447
-53.5552
-53.4199
-53.2378
-53.0074
-52.7271
-52.3953
-52.0104
-51.5718
-51.0795
-50.5351
-49.9421
-49.3059
-48.6336
-53.9146
-53.8713
-53.7843
-53.6526
-53.4747
-53.2486
-52.972
-52.6423
-52.2572
-51.8147
-51.3139
-50.7558
-50.1442
-49.486
-48.7912
-54.1823
-54.1409
-54.0575
-53.9308
-53.7589
-53.5394
-53.269
-52.9442
-52.5608
-52.1153
-51.6049
-51.0294
-50.3922
-49.7021
-48.9734
-54.4907
-54.4517
-54.3731
-54.2533
-54.0901
-53.8803
-53.6199
-53.3037
-52.9258
-52.48
-51.9604
-51.364
-50.6926
-49.9564
-49.1757
-54.8373
-54.8014
-54.729
-54.6184
-54.467
-54.2711
-54.0257
-53.7242
-53.3582
-52.9177
-52.3922
-51.773
-51.0573
-50.2546
-49.393
-55.2188
-55.1869
-55.1223
-55.0234
-54.8875
-54.7106
-54.487
-54.2085
-53.8642
-53.4396
-52.9171
-52.2779
-51.5083
-50.611
-49.6218
-55.6314
-55.6042
-55.549
-55.4646
-55.3482
-55.1961
-55.0022
-54.7579
-54.4498
-54.0588
-53.558
-52.9128
-52.0863
-51.0588
-49.8649
-56.0702
-56.0484
-56.0043
-55.9367
-55.8438
-55.7223
-55.5673
-55.3702
-55.1177
-54.7872
-54.3427
-53.728
-52.8648
-51.6722
-50.1442
-56.53
-56.5141
-56.4821
-56.4334
-56.3671
-56.2814
-56.1734
-56.0374
-55.8626
-55.6289
-55.2969
-54.7908
-53.9718
-52.62
-50.5357
-57.0048
-56.995
-56.9755
-56.9467
-56.9087
-56.8621
-56.8069
-56.7424
-56.6658
-56.5681
-56.4241
-56.1657
-55.6107
-54.2993
-51.3041
-57.4883
-57.4845
-57.4775
-57.4681
-57.4583
-57.4505
-57.4488
-57.4589
-57.4894
-57.5526
-57.6647
-57.8358
-58.005
-57.6617
-53.7079
-47.6896
-47.1061
-46.5014
-45.876
-45.2302
-44.5638
-43.8767
-43.1686
-42.4397
-41.6905
-40.9222
-40.1365
-39.3358
-38.523
-37.7012
-36.8741
-36.0451
-35.2179
-34.3962
-33.5836
-32.7837
-31.9999
-31.2355
-30.4936
-29.7769
-29.0879
-28.4288
-27.8014
-27.2071
-26.6471
-26.1222
-25.633
-25.1797
-24.7626
-24.3814
-24.0361
-23.7263
-23.452
-23.2126
-23.0081
-22.838
-22.702
-22.5999
-22.5316
-22.497
-22.4961
-22.5292
-22.5965
-22.6987
-22.8362
-23.0095
-23.219
-23.465
-23.7478
-24.0671
-24.4227
-24.8142
-25.2406
-25.7011
-26.1945
-26.7194
-27.2743
-27.8576
-28.4678
-29.1031
-29.7618
-30.4422
-31.1424
-31.8604
-32.5943
-33.3422
-34.1021
-34.872
-35.65
-36.4343
-37.2231
-38.0144
-38.8064
-39.5973
-40.3852
-41.1685
-41.9454
-42.7143
-43.4737
-44.2218
-44.9569
-45.6768
-46.3793
-47.0618
-47.7216
-47.7211
-47.1362
-46.5306
-45.905
-45.2594
-44.5934
-43.9066
-43.1984
-42.4688
-41.718
-40.9471
-40.1581
-39.3533
-38.5359
-37.7092
-36.8768
-36.0426
-35.2102
-34.3833
-33.5657
-32.7609
-31.9724
-31.2036
-30.4577
-29.7374
-29.0454
-28.3837
-27.7542
-27.1584
-26.5972
-26.0715
-25.5819
-25.1285
-24.7114
-24.3305
-23.9855
-23.6762
-23.4023
-23.1634
-22.9593
-22.7896
-22.654
-22.5522
-22.484
-22.4493
-22.448
-22.4806
-22.5473
-22.6487
-22.7855
-22.9581
-23.1672
-23.413
-23.6959
-24.0156
-24.372
-24.7645
-25.1923
-25.6545
-26.1498
-26.6768
-27.2339
-27.8196
-28.4322
-29.0699
-29.7312
-30.4142
-31.117
-31.8378
-32.5746
-33.3252
-34.0878
-34.8604
-35.6411
-36.428
-37.2194
-38.0133
-38.808
-39.6014
-40.3918
-41.1774
-41.9566
-42.7278
-43.4895
-44.2402
-44.9782
-45.7014
-46.4075
-47.0938
-47.7575
-47.7834
-47.1956
-46.5884
-45.9625
-45.3175
-44.6528
-43.967
-43.259
-42.528
-41.7742
-40.9982
-40.2023
-39.3891
-38.5622
-37.7253
-36.8825
-36.0377
-35.1948
-34.3575
-33.5296
-32.7148
-31.9168
-31.1392
-30.3852
-29.6578
-28.9597
-28.2929
-27.6593
-27.0602
-26.4967
-25.9696
-25.4792
-25.0257
-24.6089
-24.2286
-23.8844
-23.576
-23.3029
-23.0649
-22.8617
-22.6929
-22.5581
-22.457
-22.389
-22.3541
-22.3522
-22.3837
-22.4489
-22.5487
-22.6839
-22.8551
-23.0632
-23.3086
-23.5916
-23.9121
-24.2699
-24.6646
-25.0953
-25.5609
-26.0602
-26.5914
-27.1531
-27.7435
-28.3608
-29.0034
-29.6697
-30.358
-31.0663
-31.7927
-32.5351
-33.2914
-34.0595
-34.8374
-35.6233
-36.4155
-37.2121
-38.0113
-38.8112
-39.6098
-40.4051
-41.1954
-41.979
-42.7545
-43.5208
-44.2766
-45.0203
-45.7501
-46.4635
-47.1578
-47.8296
-47.875
-47.2824
-46.6729
-46.0469
-45.4039
-44.742
-44.059
-43.3524
-42.6202
-41.8619
-41.0782
-40.2713
-39.4447
-38.6028
-37.7501
-36.8912
-36.0303
-35.1714
-34.3184
-33.4749
-32.6449
-31.8324
-31.0411
-30.2748
-29.5366
-28.8293
-28.1549
-27.5151
-26.9114
-26.3446
-25.8154
-25.3242
-24.8707
-24.4546
-24.0755
-23.7326
-23.4255
-23.1538
-22.9173
-22.7155
-22.5482
-22.4148
-22.3147
-22.2473
-22.2122
-22.2093
-22.2389
-22.3017
-22.3987
-22.5311
-22.7
-22.9064
-23.1509
-23.434
-23.7556
-24.1157
-24.5137
-24.9487
-25.4197
-25.925
-26.463
-27.0316
-27.6291
-28.2535
-28.9034
-29.5772
-30.2733
-30.9899
-31.7248
-32.476
-33.2408
-34.0172
-34.8031
-35.5968
-36.3966
-37.201
-38.0083
-38.8163
-39.6228
-40.4256
-41.2227
-42.0126
-42.7942
-43.5669
-44.3298
-45.082
-45.8218
-46.5465
-47.2532
-47.9379
-47.9929
-47.3932
-46.7805
-46.1555
-45.517
-44.8615
-44.1848
-43.4822
-42.7499
-41.9861
-41.1914
-40.3686
-39.5225
-38.6589
-37.7839
-36.9028
-36.0202
-35.14
-34.2657
-33.4011
-32.5503
-31.7176
-30.9076
-30.1244
-29.3716
-28.6519
-27.9674
-27.3197
-26.7099
-26.1389
-25.6074
-25.1154
-24.6625
-24.248
-23.8708
-23.53
-23.2249
-22.955
-22.7202
-22.5205
-22.3554
-22.2243
-22.1262
-22.06
-22.0249
-22.0205
-22.0472
-22.1061
-22.1986
-22.3266
-22.4918
-22.6955
-22.9386
-23.2217
-23.5447
-23.9076
-24.31
-24.7511
-25.2296
-25.7437
-26.291
-26.8693
-27.4764
-28.1102
-28.7696
-29.4531
-30.1596
-30.8873
-31.6342
-32.3973
-33.174
-33.9615
-34.7578
-35.5614
-36.3712
-37.186
-38.0041
-38.8234
-39.6411
-40.4541
-41.2602
-42.0578
-42.8465
-43.6265
-44.3981
-45.1612
-45.9144
-46.6552
-47.3795
-48.0828
-48.1327
-47.5222
-46.9054
-46.2834
-45.6539
-45.0114
-44.3477
-43.6545
-42.9248
-42.1548
-41.3449
-40.4993
-39.6254
-38.7317
-37.8266
-36.9167
-36.0068
-35.1001
-34.1994
-33.3078
-32.4298
-31.5706
-30.7358
-29.9307
-29.1593
-28.4244
-27.7277
-27.0703
-26.4531
-25.8772
-25.3431
-24.8509
-24.3998
-23.9883
-23.6146
-23.2769
-22.9742
-22.7064
-22.4737
-22.2764
-22.1146
-21.9872
-21.8926
-21.8288
-21.7942
-21.7879
-21.8102
-21.8628
-21.9483
-22.0694
-22.2289
-22.4287
-22.6697
-22.9525
-23.2771
-23.6435
-24.0515
-24.5005
-24.9891
-25.515
-26.0752
-26.6663
-27.2856
-27.9309
-28.6013
-29.2964
-30.0157
-30.7578
-31.5203
-32.2997
-33.0918
-33.8935
-34.7023
-35.5174
-36.3386
-37.166
-37.9984
-38.8329
-39.6658
-40.4925
-41.3097
-42.1157
-42.911
-43.6976
-44.4782
-45.254
-46.0246
-46.7867
-47.5355
-48.2647
-48.2874
-47.6601
-47.0373
-46.4216
-45.8095
-45.1913
-44.5529
-43.8791
-43.1574
-42.3808
-41.5496
-40.6709
-39.7568
-38.8211
-37.8762
-36.9308
-35.989
-35.052
-34.1201
-33.1954
-32.2826
-31.3888
-30.5218
-29.6888
-28.8949
-28.1424
-27.4319
-26.7635
-26.1376
-25.5557
-25.019
-24.5278
-24.0808
-23.6751
-23.3072
-22.974
-22.6743
-22.408
-22.1768
-21.9822
-21.825
-21.7037
-21.6155
-21.5566
-21.5236
-21.5147
-21.5303
-21.5731
-21.6474
-21.7579
-21.9089
-22.1031
-22.3415
-22.624
-22.9502
-23.3203
-23.7346
-24.1935
-24.6955
-25.2377
-25.8154
-26.4235
-27.0578
-27.7161
-28.3981
-29.1054
-29.8393
-30.5994
-31.3827
-32.1838
-32.9964
-33.8153
-34.6379
-35.4645
-36.2974
-37.139
-37.9894
-38.8449
-39.6991
-40.5445
-41.3751
-42.1887
-42.9874
-43.7772
-44.5646
-45.3541
-46.1462
-46.937
-47.7192
-48.4841
-48.4458
-47.791
-47.1585
-46.5544
-45.9737
-45.4001
-44.8087
-44.1725
-43.469
-42.6855
-41.8226
-40.8934
-39.9192
-38.9237
-37.9268
-36.9398
-35.9646
-34.9965
-34.0307
-33.0661
-32.1086
-31.1686
-30.2591
-29.3912
-28.5713
-27.8004
-27.0761
-26.3958
-25.7595
-25.1698
-24.6301
-24.1419
-23.7031
-23.3081
-22.9503
-22.624
-22.3267
-22.0599
-21.8279
-21.6352
-21.4843
-21.3734
-21.297
-21.2478
-21.2192
-21.2072
-21.2122
-21.239
-21.295
-21.3889
-21.5276
-21.7148
-21.9507
-22.2332
-22.5609
-22.9339
-23.3546
-23.825
-24.3448
-24.9099
-25.5124
-26.1435
-26.7963
-27.4675
-28.1591
-28.8766
-29.6257
-30.4081
-31.2198
-32.0515
-32.892
-33.7321
-34.568
-35.4027
-36.2438
-37.0995
-37.9728
-38.8587
-39.7451
-40.6177
-41.4648
-42.2826
-43.0766
-43.8599
-44.6475
-45.45
-46.2692
-47.0988
-47.9275
-48.742
-48.5912
-47.8893
-47.2387
-46.6531
-46.1276
-45.6344
-45.129
-44.5629
-43.8955
-43.1043
-42.1912
-41.1808
-40.1124
-39.0285
-37.9632
-36.9322
-35.9299
-34.9383
-33.9395
-32.9272
-31.9094
-30.905
-29.9371
-29.0249
-28.1776
-27.3919
-26.6574
-25.9655
-25.3149
-24.7124
-24.1675
-23.6855
-23.2628
-22.8884
-22.5487
-22.2328
-21.9361
-21.6626
-21.4229
-21.2288
-21.0868
-20.9941
-20.9401
-20.9103
-20.8916
-20.8759
-20.8637
-20.8634
-20.8891
-20.9562
-21.0772
-21.2571
-21.4933
-21.7783
-22.107
-22.4799
-22.9035
-23.3859
-23.9298
-24.5287
-25.1687
-25.8331
-26.5086
-27.1901
-27.8834
-28.6029
-29.3643
-30.175
-31.0285
-31.907
-32.7885
-33.6552
-34.5002
-35.3316
-36.1693
-37.0347
-37.9382
-38.8715
-39.8109
-40.7272
-41.5966
-42.4106
-43.1808
-43.9358
-44.7085
-45.5214
-46.3768
-47.2615
-48.1557
-49.0397
-48.6989
-47.9134
-47.2248
-46.6646
-46.2349
-45.886
-45.5366
-45.099
-44.5002
-43.6988
-42.6997
-41.5517
-40.3279
-39.1067
-37.9501
-36.8832
-35.8803
-34.8904
-33.8681
-32.7965
-31.6913
-30.5893
-29.535
-28.5655
-27.6958
-26.91
-26.178
-25.4761
-24.8015
-24.1726
-23.615
-23.1445
-22.7537
-22.4193
-22.1137
-21.8147
-21.5129
-21.2175
-20.9532
-20.7482
-20.6191
-20.5601
-20.5491
-20.5578
-20.5604
-20.5406
-20.4987
-20.4512
-20.4243
-20.4469
-20.5424
-20.7195
-20.9661
-21.2615
-21.5902
-21.9534
-22.3687
-22.8589
-23.4362
-24.0892
-24.7906
-25.5074
-26.213
-26.8963
-27.5704
-28.2695
-29.0324
-29.8806
-30.8015
-31.7584
-32.7067
-33.6097
-34.4521
-35.2517
-36.055
-36.9148
-37.8608
-38.8756
-39.91
-40.9039
-41.808
-42.6013
-43.3067
-43.9858
-44.7113
-45.5311
-46.4418
-47.4098
-48.3979
-49.3794
-48.7323
-47.7974
-47.0252
-46.4877
-46.225
-46.1378
-46.0709
-45.8671
-45.3964
-44.5779
-43.4227
-42.0316
-40.5397
-39.0917
-37.8082
-36.7422
-35.8122
-34.8896
-33.8681
-32.7144
-31.4688
-30.2054
-29.0115
-27.9629
-27.0937
-26.3513
-25.6559
-24.948
-24.2232
-23.5308
-22.9378
-22.4896
-22.1642
-21.9095
-21.67
-21.4013
-21.0814
-20.7284
-20.3991
-20.159
-20.0514
-20.0578
-20.1307
-20.2152
-20.2622
-20.2381
-20.1429
-20.0103
-19.8891
-19.8336
-19.8913
-20.0825
-20.3697
-20.6974
-21.0245
-21.3527
-21.7268
-22.2074
-22.8342
-23.581
-24.3908
-25.1986
-25.9501
-26.6163
-27.222
-27.8449
-28.5781
-29.4822
-30.5232
-31.6226
-32.6905
-33.6518
-34.466
-35.1666
-35.8594
-36.6712
-37.684
-38.8516
-40.0671
-41.2099
-42.1786
-42.9183
-43.47
-43.9686
-44.5778
-45.4093
-46.4236
-47.5287
-48.6491
-49.7607
-48.634
-47.4466
-46.4872
-45.9145
-45.9618
-46.3597
-46.8018
-47.0189
-46.7933
-45.9417
-44.4855
-42.6564
-40.6884
-38.8401
-37.3532
-36.4057
-35.7337
-35.0313
-34.0589
-32.7651
-31.2725
-29.7219
-28.2792
-27.1024
-26.3096
-25.7257
-25.1522
-24.445
-23.5987
-22.7467
-22.0527
-21.6585
-21.4737
-21.3789
-21.2692
-21.0625
-20.6983
-20.2064
-19.7174
-19.3802
-19.3204
-19.4609
-19.6967
-19.9276
-20.0675
-20.0389
-19.8419
-19.5542
-19.2604
-19.0582
-19.0491
-19.3082
-19.7159
-20.1353
-20.4582
-20.6867
-20.9326
-21.3465
-22.0602
-22.983
-23.9947
-24.9717
-25.8108
-26.4242
-26.8498
-27.2619
-27.8786
-28.8871
-30.1613
-31.5325
-32.8286
-33.9059
-34.6437
-35.0932
-35.4925
-36.1383
-37.2846
-38.7582
-40.3291
-41.7664
-42.8785
-43.5058
-43.7095
-43.7918
-44.1239
-45.0235
-46.2742
-47.6246
-48.9123
-50.1655
-48.2755
-46.7668
-45.3925
-44.4487
-45.1938
-46.5183
-47.8566
-48.8083
-49.0913
-48.1762
-46.0852
-43.4812
-40.6648
-38.0681
-36.1216
-35.6727
-35.699
-35.5622
-34.713
-33.1025
-31.1601
-29.0833
-27.1644
-25.6893
-25.2253
-25.0856
-24.8416
-24.1431
-22.983
-21.7359
-20.7363
-20.5266
-20.6545
-20.8704
-21.009
-20.9513
-20.5001
-19.6808
-18.8178
-18.2027
-18.3018
-18.7276
-19.2707
-19.7718
-20.1163
-20.0832
-19.6725
-19.1077
-18.5005
-18.0055
-17.8213
-18.3208
-19.0459
-19.7129
-20.0288
-19.9964
-19.8971
-20.0544
-20.9856
-22.2579
-23.6494
-24.9443
-25.997
-26.5029
-26.4979
-26.3847
-26.6152
-27.91
-29.66
-31.5512
-33.2818
-34.6492
-35.2367
-35.0922
-34.7709
-34.8847
-36.4139
-38.5248
-40.7835
-42.7908
-44.2763
-44.703
-44.1236
-43.2547
-42.8521
-44.1317
-45.9809
-47.8098
-49.2244
-50.469
-47.1349
-45.8933
-43.6774
-40.5498
-43.5908
-46.6563
-49.4676
-51.5604
-53.1143
-52.1041
-48.4234
-44.6116
-40.3252
-36.3598
-32.7335
-34.2554
-35.8997
-37.1193
-36.4636
-33.9181
-31.2417
-28.218
-25.4111
-22.8207
-23.6745
-24.5963
-25.1862
-24.5065
-22.4934
-20.3694
-18.283
-18.9095
-19.7093
-20.474
-21.0324
-21.4076
-20.8328
-19.2192
-17.5624
-15.9977
-16.8136
-17.8265
-18.9064
-19.8427
-20.7098
-20.6725
-19.7261
-18.7234
-17.5802
-16.5064
-15.6101
-17.0096
-18.4606
-19.7971
-20.1019
-19.4033
-18.4932
-17.6488
-19.4206
-21.362
-23.444
-25.2665
-26.9716
-27.3183
-26.3024
-25.0134
-23.8197
-26.2781
-28.9559
-31.8017
-34.2587
-36.5159
-36.8843
-35.3462
-33.4228
-31.593
-34.7056
-38.0783
-41.5998
-44.5663
-47.1987
-47.3485
-44.954
-42.0455
-39.1578
-42.4188
-45.7161
-48.5909
-49.7799
-49.9839
-42.2253
-46.4212
-43.2745
-27.7681
-41.9521
-47.1601
-52.1132
-55.0881
-60.8293
-59.8774
-50.9504
-46.4256
-39.5233
-34.1633
-21.9323
-32.6623
-36.7121
-41.3774
-40.9358
-34.9228
-31.8237
-27.041
-23.3465
-14.9928
-22.0266
-24.5854
-27.3597
-26.7905
-22.1642
-18.9495
-11.9239
-17.0436
-18.8155
-20.3754
-21.3207
-23.2328
-22.6624
-18.8205
-16.1752
-10.3657
-15.0424
-16.8301
-18.7498
-20.0142
-22.607
-22.572
-19.8619
-18.5424
-16.561
-14.7523
-10.094
-15.625
-18.041
-21.3679
-21.6209
-19.1155
-16.9957
-11.4767
-17.612
-20.2647
-23.6133
-25.7584
-29.9032
-30.0967
-26.5009
-23.5057
-15.7659
-24.3306
-28.0105
-32.6125
-35.5238
-41.103
-41.2776
-36.1555
-31.9399
-21.1843
-32.6229
-37.4176
-43.2151
-46.8226
-53.6957
-53.6575
-46.5243
-40.8059
-26.6087
-40.6531
-46.059
-51.7988
-51.7538
-45.0045
-48.4164
-49.1367
-49.8118
-50.4382
-51.013
-51.5343
-52.001
-52.413
-52.7705
-53.0742
-53.3251
-53.5242
-53.6726
-53.771
-53.8201
-48.4566
-49.1811
-49.8598
-50.489
-51.0656
-51.5879
-52.055
-52.4666
-52.8234
-53.1261
-53.3759
-53.5741
-53.7216
-53.8194
-53.8682
-48.5374
-49.2706
-49.9567
-50.5914
-51.1718
-51.696
-52.1635
-52.5743
-52.9294
-53.23
-53.4776
-53.6737
-53.8194
-53.916
-53.9641
-48.6595
-49.4066
-50.1041
-50.7474
-51.3333
-51.8601
-52.3276
-52.7367
-53.0889
-53.3859
-53.6299
-53.8225
-53.9655
-54.0601
-54.1072
-48.8244
-49.5913
-50.3051
-50.9601
-51.553
-52.0825
-52.5494
-52.9552
-53.3026
-53.5941
-53.8325
-54.0202
-54.1591
-54.2508
-54.2965
-49.0342
-49.8284
-50.564
-51.2341
-51.8351
-52.3669
-52.8312
-53.2313
-53.5711
-53.8545
-54.0849
-54.2655
-54.3989
-54.4867
-54.5303
-49.2921
-50.1235
-50.8877
-51.5763
-52.1859
-52.7179
-53.1763
-53.5669
-53.8952
-54.1667
-54.3861
-54.5573
-54.6831
-54.7658
-54.8068
-49.6032
-50.4852
-51.2865
-51.9966
-52.6135
-53.1417
-53.5887
-53.9637
-54.2751
-54.5301
-54.7347
-54.8933
-55.0095
-55.0856
-55.1234
-49.9755
-50.9268
-51.7757
-52.5093
-53.1293
-53.6457
-54.0725
-54.4236
-54.7106
-54.9431
-55.128
-55.2707
-55.3748
-55.4429
-55.4766
-50.4216
-51.4701
-52.3794
-53.1349
-53.7474
-54.2386
-54.6315
-54.9467
-55.2
-55.4027
-55.5627
-55.6856
-55.7751
-55.8335
-55.8624
-50.9604
-52.1516
-53.1359
-53.9026
-54.4856
-54.9282
-55.2673
-55.5312
-55.7392
-55.9041
-56.0336
-56.133
-56.2053
-56.2526
-56.276
-51.6202
-53.0391
-54.1087
-54.8531
-55.3629
-55.7193
-55.977
-56.1707
-56.321
-56.4399
-56.5338
-56.6063
-56.6595
-56.6944
-56.7118
-52.4486
-54.2752
-55.4057
-56.0384
-56.3936
-56.6076
-56.7492
-56.8524
-56.9336
-56.9999
-57.0544
-57.098
-57.1308
-57.1528
-57.1638
-53.599
-56.2066
-57.1989
-57.4996
-57.5653
-57.5667
-57.5583
-57.5553
-57.5602
-57.5711
-57.585
-57.5993
-57.6118
-57.6209
-57.6257
-56.1303
-59.7521
-59.6822
-59.1951
-58.8008
-58.5338
-58.3602
-58.2493
-58.1801
-58.1383
-58.1144
-58.1014
-58.0949
-58.0921
-58.0911
-57.9341
-57.9354
-57.9387
-57.9457
-57.9592
-57.9835
-58.0256
-58.0962
-58.2135
-58.4095
-58.7467
-59.3675
-60.6686
-64.0532
-75.6776
-58.3377
-58.3431
-58.3548
-58.3748
-58.4065
-58.4553
-58.5296
-58.6426
-58.8165
-59.0894
-59.5324
-60.2869
-61.6432
-64.1404
-68.002
-58.7369
-58.7457
-58.7644
-58.795
-58.8413
-58.9088
-59.0061
-59.1463
-59.35
-59.6501
-60.1008
-60.7876
-61.825
-63.2793
-64.9545
-59.1291
-59.1407
-59.1648
-59.2037
-59.2607
-59.341
-59.4523
-59.6053
-59.8156
-60.1053
-60.5043
-61.0445
-61.7168
-62.2639
-61.1438
-59.5124
-59.5261
-59.5544
-59.5991
-59.6633
-59.7512
-59.8689
-60.0238
-60.2253
-60.4835
-60.8089
-61.209
-61.6946
-62.4054
-64.5168
-59.8854
-59.9006
-59.9317
-59.9803
-60.0487
-60.1403
-60.2592
-60.4094
-60.5943
-60.814
-61.0612
-61.3134
-61.5152
-61.5737
-61.4154
-60.247
-60.2632
-60.2961
-60.3469
-60.4175
-60.5101
-60.6271
-60.7701
-60.9381
-61.1241
-61.3098
-61.4519
-61.4342
-60.8921
-58.2147
-60.5966
-60.6133
-60.6471
-60.699
-60.7703
-60.8624
-60.9765
-61.1128
-61.2679
-61.4329
-61.5886
-61.7007
-61.7161
-61.693
-62.9543
-60.9336
-60.9506
-60.9848
-61.037
-61.108
-61.1989
-61.3102
-61.4415
-61.5895
-61.7465
-61.8977
-62.016
-62.0236
-61.6014
-58.7921
-61.258
-61.275
-61.3092
-61.3611
-61.4314
-61.5208
-61.6297
-61.7579
-61.9035
-62.0623
-62.2297
-62.4073
-62.6282
-63.167
-65.9794
-61.5697
-61.5865
-61.6204
-61.6716
-61.7408
-61.8285
-61.9354
-62.0616
-62.2068
-62.3705
-62.5546
-62.7678
-63.0107
-63.153
-61.8426
-61.8687
-61.8853
-61.9186
-61.9689
-62.0367
-62.1226
-62.2272
-62.3513
-62.4958
-62.6626
-62.8591
-63.1071
-63.4616
-64.1474
-66.522
-62.1552
-62.1714
-62.204
-62.2532
-62.3194
-62.4031
-62.5051
-62.6263
-62.7679
-62.9324
-63.1276
-63.3717
-63.6812
-63.9682
-63.1482
-62.4294
-62.4453
-62.477
-62.5249
-62.5892
-62.6704
-62.7692
-62.8863
-63.0224
-63.1792
-63.3622
-63.5902
-63.9148
-64.5573
-66.6938
-62.6917
-62.7071
-62.7379
-62.7843
-62.8466
-62.9251
-63.0202
-63.1323
-63.2612
-63.4058
-63.5653
-63.7408
-63.9261
-64.1083
-64.2589
-62.9423
-62.9572
-62.987
-63.0319
-63.092
-63.1676
-63.259
-63.366
-63.4874
-63.6201
-63.7573
-63.8837
-63.9382
-63.6807
-61.9412
-63.1815
-63.1959
-63.2247
-63.268
-63.326
-63.3987
-63.4865
-63.5889
-63.7044
-63.8293
-63.9568
-64.0758
-64.1654
-64.2817
-65.3469
-63.4096
-63.4235
-63.4513
-63.4931
-63.5489
-63.6189
-63.7033
-63.8018
-63.9132
-64.0348
-64.1621
-64.2876
-64.3725
-64.2232
-62.5864
-63.6271
-63.6405
-63.6673
-63.7075
-63.7613
-63.8287
-63.9099
-64.005
-64.1135
-64.2343
-64.3687
-64.5267
-64.7407
-65.1969
-67.1223
-63.8341
-63.8471
-63.8729
-63.9117
-63.9634
-64.0283
-64.1065
-64.1982
-64.3034
-64.4224
-64.5589
-64.7262
-64.9392
-65.1498
-64.5883
-64.0312
-64.0436
-64.0685
-64.1059
-64.1557
-64.2181
-64.2933
-64.3813
-64.4822
-64.5962
-64.7275
-64.8932
-65.1378
-65.6384
-67.2797
-64.2185
-64.2305
-64.2545
-64.2905
-64.3385
-64.3985
-64.4706
-64.5547
-64.6502
-64.7559
-64.8723
-65.0046
-65.157
-65.334
-65.5221
-64.3963
-64.408
-64.4312
-64.4659
-64.5122
-64.5699
-64.6392
-64.7195
-64.8095
-64.9063
-65.0058
-65.1014
-65.1574
-65.0215
-63.9086
-64.5651
-64.5763
-64.5988
-64.6324
-64.6771
-64.7329
-64.7996
-64.8767
-64.9623
-65.0526
-65.1421
-65.2247
-65.2895
-65.3867
-66.1574
-64.7249
-64.7358
-64.7575
-64.7901
-64.8335
-64.8877
-64.9525
-65.0273
-65.1102
-65.1974
-65.2832
-65.3597
-65.3975
-65.2837
-64.3332
-64.876
-64.8866
-64.9078
-64.9395
-64.9818
-65.0346
-65.0979
-65.1713
-65.2534
-65.3411
-65.4308
-65.5206
-65.609
-65.7612
-66.6281
-65.0186
-65.029
-65.0496
-65.0806
-65.1219
-65.1736
-65.2359
-65.3086
-65.391
-65.4813
-65.5781
-65.6818
-65.7746
-65.7418
-64.7732
-65.153
-65.1631
-65.1833
-65.2135
-65.2539
-65.3047
-65.3661
-65.4384
-65.5214
-65.6148
-65.7208
-65.8497
-66.0259
-66.3716
-67.6667
-65.2792
-65.2891
-65.3088
-65.3384
-65.378
-65.4279
-65.4884
-65.56
-65.6429
-65.7375
-65.8474
-65.9838
-66.1578
-66.3415
-66.0661
-65.3975
-65.4071
-65.4264
-65.4554
-65.4942
-65.5431
-65.6026
-65.6729
-65.7545
-65.8475
-65.9555
-66.0911
-66.2814
-66.6297
-67.6558
-65.5079
-65.5173
-65.5362
-65.5646
-65.6026
-65.6505
-65.7086
-65.7773
-65.8563
-65.9451
-66.0444
-66.1597
-66.2934
-66.4466
-66.6042
-65.6106
-65.6198
-65.6384
-65.6662
-65.7034
-65.7502
-65.8069
-65.8736
-65.9496
-66.0331
-66.1221
-66.2147
-66.2902
-66.26
-65.676
-65.7057
-65.7148
-65.7329
-65.7602
-65.7967
-65.8425
-65.8979
-65.9627
-66.036
-66.1152
-66.1974
-66.2808
-66.3587
-66.4572
-66.9268
-65.7934
-65.8023
-65.8201
-65.8469
-65.8826
-65.9275
-65.9818
-66.0451
-66.1164
-66.1931
-66.2718
-66.3499
-66.4112
-66.3962
-65.9471
-65.8738
-65.8825
-65.9
-65.9263
-65.9614
-66.0056
-66.0589
-66.1212
-66.1915
-66.2674
-66.3467
-66.4297
-66.5151
-66.636
-67.1247
-65.9469
-65.9555
-65.9727
-65.9986
-66.0332
-66.0767
-66.1293
-66.1909
-66.2608
-66.3372
-66.4189
-66.5072
-66.5927
-66.6199
-66.2004
-66.0129
-66.0213
-66.0383
-66.0638
-66.098
-66.1409
-66.1929
-66.2541
-66.3239
-66.4012
-66.4865
-66.5857
-66.7092
-66.9133
-67.5638
-66.0718
-66.0801
-66.0969
-66.1221
-66.1558
-66.1982
-66.2497
-66.3104
-66.3799
-66.4576
-66.5444
-66.6466
-66.7681
-66.896
-66.8281
-66.1237
-66.132
-66.1486
-66.1735
-66.2068
-66.2488
-66.2997
-66.3597
-66.4286
-66.5055
-66.5915
-66.6933
-66.8209
-67.0142
-67.4821
-66.1687
-66.1769
-66.1933
-66.218
-66.251
-66.2925
-66.3428
-66.4021
-66.4699
-66.5451
-66.6275
-66.7213
-66.8263
-66.9409
-67.0524
-66.2069
-66.215
-66.2313
-66.2557
-66.2884
-66.3295
-66.3793
-66.4378
-66.5043
-66.5773
-66.6557
-66.7406
-66.8234
-66.8694
-66.7141
-66.2382
-66.2463
-66.2625
-66.2867
-66.3192
-66.36
-66.4093
-66.4671
-66.5325
-66.6038
-66.6793
-66.7606
-66.8443
-66.9371
-67.15
-66.2627
-66.2708
-66.2869
-66.3111
-66.3434
-66.3839
-66.4329
-66.4902
-66.5549
-66.625
-66.699
-66.7781
-66.8573
-66.9208
-66.8799
-66.2805
-66.2885
-66.3046
-66.3288
-66.361
-66.4015
-66.4503
-66.5073
-66.5717
-66.6414
-66.715
-66.7947
-66.8794
-66.9764
-67.1574
-66.2915
-66.2995
-66.3157
-66.3398
-66.3721
-66.4126
-66.4615
-66.5186
-66.583
-66.6529
-66.7268
-66.8071
-66.8913
-66.973
-67.0129
-66.2957
-66.3038
-66.32
-66.3443
-66.3767
-66.4174
-66.4665
-66.5239
-66.5888
-66.6594
-66.7343
-66.816
-66.9033
-66.9981
-67.1234
-66.2931
-66.3013
-66.3176
-66.342
-66.3747
-66.4157
-66.4653
-66.5233
-66.589
-66.6606
-66.7369
-66.8203
-66.9085
-67.0014
-67.1219
-66.2837
-66.2919
-66.3084
-66.3331
-66.3661
-66.4075
-66.4577
-66.5165
-66.5833
-66.6564
-66.7347
-66.8203
-66.9087
-66.985
-66.9919
-66.2674
-66.2757
-66.2924
-66.3174
-66.3508
-66.3928
-66.4436
-66.5034
-66.5714
-66.6463
-66.7274
-66.8177
-66.9154
-67.0163
-67.1073
-66.2441
-66.2525
-66.2694
-66.2948
-66.3287
-66.3713
-66.4229
-66.4837
-66.553
-66.6297
-66.7137
-66.8092
-66.9184
-67.0539
-67.3
-66.2138
-66.2224
-66.2395
-66.2652
-66.2997
-66.343
-66.3954
-66.4571
-66.5277
-66.6059
-66.6919
-66.7903
-66.9013
-67.0141
-67.023
-66.1763
-66.1851
-66.2025
-66.2287
-66.2637
-66.3077
-66.361
-66.4237
-66.4952
-66.5744
-66.6615
-66.7619
-66.8813
-67.046
-67.4212
-66.1317
-66.1405
-66.1583
-66.185
-66.2206
-66.2654
-66.3197
-66.3833
-66.4556
-66.5353
-66.6219
-66.7196
-66.8281
-66.9312
-66.8506
-66.0796
-66.0887
-66.1068
-66.134
-66.1704
-66.2161
-66.2713
-66.336
-66.4092
-66.4892
-66.5746
-66.6689
-66.777
-66.9432
-67.482
-66.0201
-66.0293
-66.0478
-66.0756
-66.1128
-66.1595
-66.2159
-66.2819
-66.3564
-66.437
-66.5212
-66.6077
-66.6838
-66.6959
-66.3146
-65.953
-65.9624
-65.9813
-66.0097
-66.0478
-66.0956
-66.1534
-66.2211
-66.2975
-66.3802
-66.466
-66.5531
-66.6333
-66.7211
-67.084
-65.8781
-65.8878
-65.9071
-65.9362
-65.9751
-66.0241
-66.0835
-66.1533
-66.2326
-66.3191
-66.41
-66.5024
-66.5759
-66.5548
-66.0818
-65.7953
-65.8052
-65.825
-65.8547
-65.8946
-65.9449
-66.006
-66.0781
-66.1608
-66.2526
-66.3529
-66.464
-66.5826
-66.7015
-66.8035
-65.7045
-65.7146
-65.7348
-65.7652
-65.806
-65.8576
-65.9204
-65.9948
-66.0808
-66.1781
-66.2882
-66.4195
-66.5873
-66.8594
-67.6104
-65.6055
-65.6158
-65.6364
-65.6675
-65.7092
-65.7619
-65.8262
-65.9025
-65.9912
-66.0925
-66.2087
-66.3489
-66.5179
-66.6841
-66.4794
-65.4982
-65.5087
-65.5297
-65.5614
-65.6039
-65.6576
-65.7231
-65.8009
-65.8912
-65.9942
-66.1127
-66.2576
-66.4486
-66.7659
-67.6944
-65.3824
-65.393
-65.4144
-65.4467
-65.4899
-65.5445
-65.611
-65.6897
-65.7805
-65.8829
-65.9982
-66.1334
-66.29
-66.4226
-66.0345
-65.2579
-65.2688
-65.2905
-65.3233
-65.3672
-65.4227
-65.49
-65.5693
-65.66
-65.7604
-65.8699
-65.9934
-66.1464
-66.4403
-67.6536
-65.1248
-65.1358
-65.1579
-65.1911
-65.2357
-65.292
-65.3601
-65.4402
-65.5309
-65.6295
-65.7317
-65.8322
-65.9032
-65.8188
-64.7849
-64.9828
-64.9939
-65.0164
-65.0501
-65.0953
-65.1524
-65.2216
-65.3027
-65.3946
-65.4937
-65.5947
-65.6907
-65.7662
-65.8561
-66.5576
-64.8318
-64.8431
-64.8658
-64.9
-64.9459
-65.0038
-65.0742
-65.1571
-65.2514
-65.3544
-65.4612
-65.5626
-65.6175
-65.4681
-64.3528
-64.6718
-64.6832
-64.7062
-64.7408
-64.7873
-64.8461
-64.9177
-65.0025
-65.1004
-65.2103
-65.3314
-65.4659
-65.6089
-65.7501
-65.8671
-64.5026
-64.5142
-64.5374
-64.5724
-64.6194
-64.6788
-64.7515
-64.8381
-64.9393
-65.0561
-65.1923
-65.3625
-65.5999
-66.0482
-67.4773
-64.3242
-64.3359
-64.3593
-64.3946
-64.4419
-64.5018
-64.5751
-64.6627
-64.7657
-64.8861
-65.0297
-65.2114
-65.4427
-65.6646
-65.1552
-64.1365
-64.1483
-64.1719
-64.2073
-64.2549
-64.315
-64.3883
-64.4757
-64.5782
-64.6977
-64.8405
-65.0252
-65.2903
-65.7881
-67.4329
-63.9395
-63.9513
-63.9751
-64.0107
-64.0584
-64.1184
-64.1912
-64.2774
-64.3771
-64.4909
-64.6223
-64.7822
-64.9745
-65.1145
-64.2838
-63.733
-63.745
-63.7689
-63.8047
-63.8525
-63.9124
-63.9845
-64.0688
-64.1643
-64.2696
-64.3843
-64.5159
-64.6932
-65.1145
-67.1558
-63.5171
-63.5291
-63.5533
-63.5894
-63.6374
-63.6973
-63.7688
-63.8514
-63.9431
-64.0396
-64.1345
-64.217
-64.2408
-63.9888
-62.0776
-63.2916
-63.3038
-63.3283
-63.3648
-63.4133
-63.4735
-63.5451
-63.627
-63.7166
-63.8084
-63.8934
-63.958
-63.9781
-64.0148
-65.0685
-63.0564
-63.0689
-63.0938
-63.131
-63.1802
-63.2413
-63.3137
-63.3964
-63.4868
-63.5798
-63.6664
-63.729
-63.7021
-63.3338
-61.3923
-62.8114
-62.8242
-62.8497
-62.8878
-62.9382
-63.0006
-63.0747
-63.1596
-63.2535
-63.3533
-63.4561
-63.5614
-63.6616
-63.7446
-63.7954
-62.5563
-62.5695
-62.5958
-62.635
-62.6869
-62.7513
-62.8278
-62.9158
-63.0143
-63.1226
-63.2441
-63.3965
-63.6312
-64.1771
-66.248
-62.291
-62.3046
-62.3318
-62.3724
-62.4263
-62.493
-62.5724
-62.6638
-62.7664
-62.8805
-63.0107
-63.1735
-63.3829
-63.5499
-62.5932
-62.015
-62.0292
-62.0574
-62.0997
-62.1559
-62.2255
-62.3082
-62.4032
-62.509
-62.6248
-62.7547
-62.9174
-63.1623
-63.7024
-65.8476
-61.7281
-61.7428
-61.7723
-61.8165
-61.8753
-61.9484
-62.0351
-62.1342
-62.2428
-62.3572
-62.4758
-62.6035
-62.735
-62.7397
-61.336
-61.4298
-61.4451
-61.4759
-61.5221
-61.584
-61.6612
-61.7531
-61.8577
-61.9707
-62.0846
-62.1907
-62.2861
-62.3939
-62.7544
-65.1331
-61.1198
-61.1357
-61.1677
-61.216
-61.2812
-61.3633
-61.4619
-61.5747
-61.6963
-61.8153
-61.9131
-61.9593
-61.8758
-61.367
-58.687
-60.7977
-60.814
-60.847
-60.8974
-60.9659
-61.0534
-61.1603
-61.2849
-61.4219
-61.5584
-61.6712
-61.722
-61.6511
-61.4869
-62.3019
-60.4631
-60.4797
-60.5133
-60.5651
-60.6366
-60.7297
-60.8459
-60.9858
-61.146
-61.316
-61.4724
-61.5682
-61.4897
-60.926
-58.6097
-60.116
-60.1324
-60.166
-60.2183
-60.2917
-60.3893
-60.5148
-60.6718
-60.8617
-61.0809
-61.3158
-61.5347
-61.6636
-61.5818
-61.2087
-59.7564
-59.7722
-59.8047
-59.856
-59.9292
-60.0289
-60.1614
-60.3341
-60.5554
-60.8327
-61.1702
-61.5631
-61.9823
-62.4392
-63.5616
-59.3848
-59.3993
-59.4294
-59.4776
-59.5476
-59.6454
-59.7796
-59.962
-60.2085
-60.5407
-60.9862
-61.5725
-62.2731
-62.8339
-62.1174
-59.0022
-59.0146
-59.0407
-59.083
-59.1459
-59.2362
-59.364
-59.5445
-59.8006
-60.1679
-60.7044
-61.5017
-62.6594
-64.1149
-64.7778
-58.61
-58.6195
-58.6398
-58.6733
-58.7246
-58.8004
-58.9114
-59.0738
-59.3138
-59.6755
-60.2417
-61.1801
-62.8372
-65.9459
-71.628
-58.2101
-58.2159
-58.2286
-58.2505
-58.2855
-58.3397
-58.4226
-58.5486
-58.7409
-59.0392
-59.5208
-60.3586
-62.0055
-65.9894
-78.7192
-79.1856
-66.3854
-62.339
-60.6638
-59.8164
-59.333
-59.0362
-58.8462
-58.7224
-58.6414
-58.5886
-58.5547
-58.5335
-58.5212
-58.5156
-72.5302
-66.3359
-63.1059
-61.4238
-60.487
-59.9283
-59.5749
-59.3422
-59.1854
-59.0787
-59.006
-58.9571
-58.9251
-58.9058
-58.8968
-64.6957
-64.227
-62.7964
-61.6656
-60.8949
-60.3795
-60.0285
-59.7846
-59.6131
-59.4918
-59.4064
-59.3469
-59.3069
-59.2824
-59.2707
-62.6914
-62.7851
-62.2769
-61.6572
-61.1255
-60.7147
-60.4062
-60.1761
-60.0054
-59.8797
-59.788
-59.7223
-59.6773
-59.6491
-59.6355
-60.6344
-61.7603
-61.8333
-61.5871
-61.2719
-60.9774
-60.7278
-60.5255
-60.3662
-60.2435
-60.1508
-60.0827
-60.035
-60.0047
-59.99
-61.5965
-61.4659
-61.6098
-61.5646
-61.4038
-61.2073
-61.0149
-60.8442
-60.7011
-60.5859
-60.4959
-60.428
-60.3796
-60.3485
-60.3333
-58.8733
-60.9799
-61.516
-61.6219
-61.5603
-61.4325
-61.2854
-61.1428
-61.0163
-60.9103
-60.8249
-60.7591
-60.7113
-60.6802
-60.665
-62.4588
-61.5836
-61.7193
-61.7951
-61.7625
-61.6695
-61.5511
-61.4294
-61.317
-61.2198
-61.1397
-61.0768
-61.0305
-61.0001
-60.985
-58.9063
-61.4844
-61.9624
-62.0432
-62.0066