/*--------------------------------*- C++ -*----------------------------------*\
| =========                 |                                                 |
| \\      /  F ield         | OpenFOAM: The Open Source CFD Toolbox           |
|  \\    /   O peration     | Version:  5.x                                   |
|   \\  /    A nd           | Web:      www.OpenFOAM.org                      |
|    \\/     M anipulation  |                                                 |
\*---------------------------------------------------------------------------*/
FoamFile
{
    version     2.0;
    format      ascii;
    class       volScalarField;
    location    "1.4";
    object      gradTy;
}
// * * * * * * * * * * * * * * * * * * * * * * * * * * * * * * * * * * * * * //

dimensions      [0 -1 0 1 0 0 0];

internalField   nonuniform List<scalar> 
6300
(
32273.4
32220.1
32166.9
32113.9
32061
32008.3
31955.9
31903.8
31852
31800.7
31749.8
31699.4
31649.5
31600.2
31551.6
-0.0343144
-0.103083
-0.172243
-0.241994
-0.312456
-0.383613
-0.455286
-0.527106
-0.598499
-0.6687
-0.73681
-0.801889
-0.863108
-0.919919
-0.972215
-0.0570305
-0.171347
-0.286384
-0.402513
-0.519964
-0.638752
-0.75861
-0.878935
-0.998755
-1.11674
-1.23128
-1.34065
-1.44326
-1.53802
-1.62466
-0.0795027
-0.238894
-0.399412
-0.561676
-0.726095
-0.892773
-1.06141
-1.2312
-1.40077
-1.56815
-1.73085
-1.88609
-2.0312
-2.16418
-2.28433
-0.101579
-0.305302
-0.510684
-0.718669
-0.929943
-1.1448
-1.36301
-1.58364
-1.80493
-2.02418
-2.23781
-2.44159
-2.63121
-2.80312
-2.95572
-0.123073
-0.37002
-0.619307
-0.872316
-1.13014
-1.3934
-1.6621
-1.93532
-2.211
-2.4857
-2.75449
-3.01113
-3.24877
-3.46124
-3.64497
-0.143769
-0.432386
-0.724186
-1.02112
-1.32483
-1.6365
-1.95658
-2.28445
-2.61796
-2.95304
-3.28322
-3.59959
-3.89144
-4.14803
-4.36182
-0.163381
-0.491549
-0.823896
-1.16307
-1.51149
-1.87111
-2.24319
-2.62781
-3.02325
-3.42517
-3.82565
-4.21248
-4.56928
-4.87753
-5.12171
-0.181577
-0.5465
-0.916723
-1.29572
-1.68684
-2.09315
-2.51713
-2.96022
-3.42193
-3.89859
-4.38159
-4.85528
-5.29554
-5.67098
-5.9502
-0.197989
-0.596115
-1.00071
-1.41616
-1.8469
-2.29738
-2.77185
-3.27388
-3.80552
-4.36555
-4.94671
-5.53137
-6.08646
-6.56046
-6.8907
-0.212238
-0.63922
-1.07379
-1.52122
-1.98712
-2.47752
-2.99886
-3.55781
-4.16058
-4.81126
-5.50817
-6.23686
-6.95821
-7.59336
-8.01935
-0.223968
-0.674699
-1.13393
-1.60771
-2.10273
-2.62658
-3.18813
-3.79778
-4.46761
-5.21058
-6.03766
-6.94942
-7.91575
-8.83492
-9.47691
-0.232889
-0.701636
-1.17944
-1.67288
-2.1894
-2.73784
-3.32915
-3.97746
-4.70136
-5.52564
-6.48224
-7.60701
-8.9199
-10.3529
-11.547
-0.238825
-0.719467
-1.20925
-1.71488
-2.24403
-2.80608
-3.41307
-4.0814
-4.83458
-5.70816
-6.75832
-8.07599
-9.80328
-12.1091
-14.8451
-0.241754
-0.728104
-1.22315
-1.73323
-2.26564
-2.82924
-3.43553
-4.10036
-4.84724
-5.71385
-6.76649
-8.13481
-10.1076
-13.4348
-20.4425
31507.6
31468.1
31429.1
31390.5
31352.6
31315.1
31278.3
31242
31206.3
31171.2
31136.8
31103
31069.9
31037.4
31005.7
30974.6
30944.2
30914.5
30885.5
30857.2
30829.6
30802.6
30776.2
30750.5
30725.5
30700.9
30677
30653.6
30630.7
30608.3
30586.3
30564.8
30543.7
30522.9
30502.4
30482.3
30462.4
30442.8
30423.4
30404.1
30385.1
30366.1
30347.3
30328.5
30309.8
30291
30272.3
30253.5
30234.7
30215.7
30196.7
30177.4
30158
30138.4
30118.5
30098.3
30077.8
30057
30035.8
30014.2
29992.2
29969.7
29946.7
29923.3
29899.3
29874.8
29849.7
29824.1
29797.9
29771
29743.6
29715.5
29686.7
29657.4
29627.3
29596.6
29565.3
29533.3
29500.6
29467.3
29433.3
29398.7
29363.4
29327.5
29290.9
29253.7
29216
29177.6
29138.6
29099.1
-1.01642
-1.05443
-1.09102
-1.12701
-1.16312
-1.19983
-1.23724
-1.27506
-1.31254
-1.34866
-1.38222
-1.41202
-1.43703
-1.45642
-1.46966
-1.47646
-1.47668
-1.47032
-1.45741
-1.43805
-1.41238
-1.38062
-1.34312
-1.30033
-1.25279
-1.20111
-1.14592
-1.08784
-1.02747
-0.965398
-0.902148
-0.838207
-0.773992
-0.70983
-0.645957
-0.582516
-0.519584
-0.457195
-0.395367
-0.33411
-0.273423
-0.213269
-0.153555
-0.0941135
-0.0347034
0.0249634
0.0851817
0.146203
0.20819
0.271188
0.335119
0.399788
0.46491
0.530136
0.595074
0.659307
0.722404
0.783939
0.843514
0.900783
0.955476
1.0074
1.05646
1.10255
1.14564
1.18563
1.2224
1.25584
1.28582
1.31226
1.33518
1.35461
1.37065
1.38339
1.39287
1.39909
1.40202
1.40165
1.39801
1.39121
1.38141
1.36879
1.35344
1.33531
1.31418
1.28968
1.26132
1.2286
1.19111
1.14862
-1.69734
-1.7595
-1.81919
-1.87802
-1.93743
-1.99843
-2.06129
-2.12545
-2.18955
-2.25165
-2.30949
-2.36084
-2.4038
-2.43699
-2.45955
-2.47108
-2.47149
-2.46082
-2.43917
-2.40667
-2.36351
-2.31005
-2.24684
-2.17465
-2.09446
-2.00733
-1.91435
-1.81659
-1.71507
-1.61077
-1.50458
-1.39736
-1.28982
-1.18251
-1.07583
-0.969984
-0.86505
-0.761049
-0.657995
-0.555914
-0.454836
-0.35474
-0.255496
-0.15682
-0.0582713
0.0406954
0.14065
0.242084
0.345313
0.450428
0.557278
0.665504
0.774588
0.883914
0.992802
1.10053
1.20637
1.30955
1.40939
1.50526
1.59671
1.68343
1.76529
1.84222
1.91416
1.98098
2.04247
2.09838
2.14844
2.19253
2.23062
2.26286
2.28947
2.31062
2.32642
2.33683
2.34174
2.34105
2.33481
2.32322
2.30664
2.28547
2.25996
2.23011
2.19552
2.15546
2.109
2.05515
1.99309
1.92231
-2.38375
-2.46793
-2.5484
-2.62797
-2.70927
-2.79415
-2.88324
-2.97569
-3.06924
-3.16057
-3.24587
-3.32149
-3.38443
-3.43264
-3.46509
-3.48149
-3.48201
-3.4669
-3.43634
-3.39042
-3.32928
-3.25331
-3.16327
-3.06032
-2.94594
-2.82179
-2.68949
-2.55059
-2.40653
-2.25869
-2.10838
-1.95684
-1.80517
-1.65419
-1.50441
-1.35604
-1.20909
-1.06347
-0.919161
-0.776225
-0.634798
-0.494961
-0.356607
-0.21934
-0.0824537
0.0549808
0.193956
0.335331
0.479662
0.627098
0.777376
0.92989
1.08381
1.2382
1.39206
1.54436
1.69399
1.83983
1.98079
2.11593
2.24454
2.36627
2.48102
2.58885
2.68981
2.78375
2.87034
2.94906
3.01943
3.08114
3.13421
3.17896
3.21584
3.24527
3.26743
3.28219
3.2892
3.28817
3.27902
3.26213
3.2382
3.20809
3.17247
3.13144
3.08443
3.03019
2.96704
2.89325
2.80735
2.70845
-3.07911
-3.18177
-3.27898
-3.37552
-3.47602
-3.58389
-3.70045
-3.82445
-3.95221
-4.07823
-4.19628
-4.30049
-4.38632
-4.45106
-4.49379
-4.51484
-4.51509
-4.49528
-4.45568
-4.39613
-4.31646
-4.21688
-4.09832
-3.96246
-3.81155
-3.64801
-3.47416
-3.29204
-3.10347
-2.91018
-2.71394
-2.51653
-2.31953
-2.12413
-1.93094
-1.74005
-1.55118
-1.36398
-1.17831
-0.994323
-0.812422
-0.632991
-0.456096
-0.281248
-0.107358
0.0671206
0.243883
0.424407
0.609631
0.799774
0.994353
1.19235
1.39247
1.59337
1.7937
1.99213
2.18719
2.37727
2.56072
2.7361
2.90242
3.05929
3.20684
3.34552
3.47568
3.59726
3.70966
3.81192
3.90301
3.98233
4.04992
4.10649
4.15305
4.19051
4.21922
4.2388
4.24837
4.24705
4.23449
4.21125
4.17874
4.13876
4.09283
4.04147
3.98385
3.91784
3.8405
3.74883
3.64034
3.51353
-3.78805
-3.90336
-4.01043
-4.11733
-4.23215
-4.36113
-4.50695
-4.66783
-4.8377
-5.00742
-5.16664
-5.30596
-5.4186
-5.50122
-5.55373
-5.57817
-5.57709
-5.5522
-5.50376
-5.43085
-5.33234
-5.20782
-5.05832
-4.88633
-4.69535
-4.4891
-4.27077
-4.04283
-3.80723
-3.56594
-3.32122
-3.07564
-2.83162
-2.59091
-2.3542
-2.12117
-1.89088
-1.66233
-1.43505
-1.20944
-0.986503
-0.767386
-0.552647
-0.341787
-0.133118
0.0759612
0.288387
0.506712
0.732512
0.966065
1.20641
1.45176
1.70004
1.94935
2.1981
2.44477
2.68757
2.92426
3.15229
3.36935
3.57394
3.76573
3.94547
4.11449
4.27393
4.42399
4.56364
4.69087
4.80356
4.90042
4.98155
5.04846
5.10341
5.14839
5.18417
5.20985
5.22327
5.22216
5.20539
5.17377
5.13006
5.07803
5.02104
4.96057
4.89541
4.82182
4.73464
4.62868
4.4998
4.34556
-4.51828
-4.63689
-4.74222
-4.84784
-4.96806
-5.11435
-5.29202
-5.49854
-5.72374
-5.95205
-6.16599
-6.35019
-6.49443
-6.59506
-6.65443
-6.67857
-6.67371
-6.64338
-6.58739
-6.50277
-6.38597
-6.23505
-6.051
-5.83782
-5.60145
-5.34785
-5.08148
-4.80487
-4.51944
-4.22686
-3.92995
-3.6327
-3.33914
-3.05208
-2.7723
-2.49851
-2.22821
-1.95893
-1.68951
-1.42076
-1.15514
-0.895513
-0.64363
-0.399169
-0.159452
0.0800192
0.324445
0.578324
0.844321
1.12268
1.41141
1.70712
2.0063
2.30634
2.6057
2.9032
3.197
3.48397
3.75993
4.02084
4.2642
4.48983
4.69985
4.89759
5.08603
5.2661
5.43586
5.59113
5.72731
5.84157
5.93408
6.00808
6.06853
6.11995
6.16411
6.19899
6.21954
6.22027
6.1981
6.15416
6.09382
6.02489
5.9547
5.88686
5.81951
5.74577
5.65621
5.54189
5.39614
5.21525
-5.28256
-5.38954
-5.47362
-5.55741
-5.66651
-5.82251
-6.03577
-6.30262
-6.60559
-6.91769
-7.20851
-7.45234
-7.63342
-7.74868
-7.80626
-7.82111
-7.80738
-7.77188
-7.71264
-7.6214
-7.48913
-7.31036
-7.08599
-6.82308
-6.5327
-6.22535
-5.90727
-5.57994
-5.24227
-4.8943
-4.53948
-4.1847
-3.83756
-3.50303
-3.18198
-2.87101
-2.56428
-2.25591
-1.94315
-1.62771
-1.31529
-1.01258
-0.723998
-0.449773
-0.185461
0.0769268
0.346893
0.632505
0.938363
1.26443
1.60644
1.95759
2.31145
2.66449
3.01616
3.36717
3.7165
4.05978
4.3895
4.69788
4.98027
5.23675
5.47224
5.69442
5.91056
6.12339
6.32933
6.51926
6.68305
6.81445
6.91369
6.98765
7.04712
7.10243
7.15787
7.20922
7.24485
7.25183
7.22265
7.15866
7.07043
6.97408
6.88549
6.81292
6.75332
6.69298
6.61392
6.5008
6.34349
6.13711
-6.10325
-6.17507
-6.20528
-6.23028
-6.29716
-6.44791
-6.70206
-7.05447
-7.4741
-7.9138
-8.31853
-8.64469
-8.86704
-8.98523
-9.01948
-9.00467
-8.97229
-8.93446
-8.88388
-8.79903
-8.65916
-8.45128
-8.1764
-7.84787
-7.48831
-7.11828
-6.74631
-6.36986
-5.97987
-5.57157
-5.14891
-4.72569
-4.31777
-3.93456
-3.5771
-3.2374
-2.90266
-2.55921
-2.20063
-1.83034
-1.46144
-1.10934
-0.783699
-0.486109
-0.208707
0.0629045
0.346783
0.65749
1.00326
1.38313
1.78827
2.20409
2.61771
3.02455
3.42753
3.8335
4.24468
4.65506
5.04971
5.41228
5.73358
6.0138
6.2637
6.49989
6.73974
6.99052
7.2457
7.48493
7.68527
7.83352
7.92955
7.98794
8.03156
8.08455
8.15738
8.2419
8.31127
8.33529
8.29715
8.19789
8.05861
7.91194
7.79304
7.72018
7.68807
7.667
7.62052
7.52321
7.36136
7.13121
-7.02053
-7.02009
-6.94395
-6.84221
-6.80616
-6.92335
-7.22568
-7.70827
-8.31249
-8.95903
-9.54047
-9.98532
-10.2494
-10.3414
-10.3021
-10.2123
-10.1439
-10.1142
-10.1033
-10.0547
-9.926
-9.6876
-9.343
-8.91629
-8.45799
-8.01302
-7.59085
-7.17839
-6.74297
-6.26865
-5.75835
-5.24386
-4.7617
-4.32835
-3.94599
-3.59607
-3.25304
-2.88377
-2.47454
-2.03057
-1.58307
-1.16772
-0.802801
-0.493222
-0.223505
0.0312705
0.308033
0.631909
1.01889
1.46521
1.95442
2.4534
2.93331
3.38972
3.83409
4.29179
4.7734
5.27236
5.75542
6.18536
6.5452
6.83364
7.07398
7.2991
7.55216
7.85022
8.18388
8.50537
8.76122
8.92646
8.99823
9.00811
9.00109
9.03663
9.13857
9.29487
9.44143
9.50669
9.45809
9.29318
9.05583
8.80822
8.63273
8.56721
8.60537
8.67612
8.69882
8.63711
8.47616
8.22591
-8.10771
-7.9733
-7.71868
-7.35868
-7.09357
-7.13107
-7.48834
-8.1854
-9.08829
-10.0963
-10.9574
-11.5844
-11.878
-11.8849
-11.6558
-11.3874
-11.2579
-11.2652
-11.3753
-11.4242
-11.3491
-11.0752
-10.6263
-10.0287
-9.40698
-8.87348
-8.42002
-8.01863
-7.56079
-7.01627
-6.37257
-5.71432
-5.13422
-4.64766
-4.2672
-3.94392
-3.64039
-3.2651
-2.79777
-2.23524
-1.65781
-1.153
-0.741825
-0.442655
-0.216586
-0.0319112
0.201475
0.515406
0.948952
1.4853
2.10621
2.72977
3.28226
3.77164
4.22074
4.71492
5.27631
5.91168
6.53669
7.05835
7.45851
7.72153
7.90489
8.0567
8.29831
8.65715
9.13799
9.61866
9.9659
10.1522
10.1541
10.0506
9.90731
9.891
10.0394
10.3597
10.6865
10.8398
10.7843
10.4905
10.0656
9.5984
9.31181
9.26271
9.47353
9.75225
9.89649
9.89185
9.71754
9.46319
-9.50328
-9.09863
-8.64442
-7.73803
-6.94525
-6.8787
-7.2623
-8.36676
-9.71333
-11.4458
-12.7119
-13.6645
-13.9199
-13.7688
-13.0669
-12.3632
-12.1756
-12.2689
-12.7361
-12.9729
-13.0594
-12.7157
-12.1244
-11.1764
-10.2297
-9.61939
-9.17489
-8.94084
-8.50412
-7.90738
-7.00836
-6.0728
-5.37257
-4.81469
-4.50658
-4.26384
-4.13157
-3.77942
-3.25853
-2.46169
-1.62826
-1.00368
-0.519756
-0.28704
-0.15028
-0.165457
-0.021256
0.226509
0.730912
1.38365
2.25428
3.10863
3.72232
4.21177
4.54274
5.04151
5.67298
6.56627
7.4672
8.10679
8.5698
8.72462
8.78171
8.68549
8.87618
9.28895
10.093
10.9248
11.4031
11.6441
11.4626
11.1513
10.6314
10.509
10.6934
11.4161
12.1822
12.4746
12.4545
11.8776
11.1371
10.1295
9.64989
9.58491
10.2449
11.023
11.3095
11.3919
11.0753
10.9125
-11.5156
-10.295
-10.2212
-7.95341
-5.75064
-5.97758
-5.99779
-8.19912
-9.78233
-13.4666
-14.9176
-16.7482
-16.547
-16.4456
-14.4801
-12.5959
-12.6883
-12.7342
-14.4283
-14.7381
-15.3891
-14.7124
-14.1358
-12.3223
-10.5678
-10.1264
-9.62656
-10.1547
-9.67774
-9.23365
-7.69666
-6.09231
-5.40584
-4.62194
-4.65174
-4.4246
-4.93931
-4.53665
-4.11663
-2.74083
-1.29791
-0.65181
0.064077
0.00678781
0.134808
-0.52853
-0.393188
-0.432019
0.299147
0.96814
2.42568
3.83393
4.3412
4.88002
4.62303
5.17695
5.69253
7.20973
8.77389
9.40938
10.1247
9.8683
9.87914
8.90093
9.13401
9.35713
11.0077
12.7395
13.1819
13.744
12.9576
12.5522
10.7826
10.685
10.5717
12.4098
14.3595
14.559
14.9261
13.5001
12.5929
9.89995
9.3906
8.86286
10.8458
13.0013
13.0164
13.4664
12.2111
12.7434
-15.245
-9.8396
-14.957
-8.07461
-1.05648
-5.37318
-1.59133
-8.92036
-6.82451
-18.7021
-16.5754
-22.7564
-19.0291
-21.8052
-15.7751
-9.98082
-13.2664
-10.8251
-18.1124
-16.0107
-19.6293
-16.5638
-17.9274
-13.3822
-9.01366
-10.7167
-8.59682
-12.8151
-10.803
-12.1328
-8.48105
-4.78916
-5.57856
-3.25665
-5.1661
-3.51639
-7.06737
-5.31836
-6.35048
-3.11615
0.180336
-0.399992
1.76163
0.0341041
1.55966
-2.04153
-0.514307
-2.19936
-0.0432313
-0.583039
2.66781
5.8564
4.91437
6.69384
3.5352
5.36706
4.26924
7.78496
11.4173
10.5963
13.0783
10.6264
12.3999
7.3712
9.4051
7.36869
11.8043
16.4097
14.7872
17.7843
13.9027
15.916
8.52458
10.882
7.63854
13.2411
19.0555
16.4002
19.9781
14.3739
16.6183
6.52437
9.15613
4.52372
11.1968
18.0599
14.0955
17.9948
10.7714
15.887
-27.2805
5.76917
-36.9714
-8.3906
19.9602
-16.4304
18.815
-23.2132
16.2552
-44.1033
-6.27006
-43.0324
-12.1463
-39.8454
-16.7305
5.70953
-22.0914
5.09367
-35.3168
-9.04611
-33.4949
-12.0371
-30.2276
-14.1877
1.2836
-16.8118
1.55987
-24.4472
-7.11625
-22.2053
-9.32331
2.96717
-10.2315
4.20197
-10.8057
4.8809
-16.8276
-2.09537
-14.7282
-3.58103
7.24135
-4.0965
9.05975
-4.623
10.3671
-10.9397
3.99011
-9.49828
3.49636
-7.59301
2.99954
13.8271
1.56859
15.6187
-4.73912
9.77583
-3.79775
8.19226
20.4736
7.02698
23.1368
5.29977
24.7158
-4.32888
15.5373
-3.93976
12.3562
29.0483
9.73986
31.73
6.35893
32.8226
-7.7721
19.1441
-8.03325
13.7671
35.9478
9.26543
38.2523
3.94538
38.4106
-15.1762
19.382
-16.0953
11.2738
38.7101
3.85079
38.5398
-8.43656
27.2058
29055.1
29006.3
28956.7
28906.6
28855.8
28804.5
28752.7
28700.4
28647.8
28594.9
28541.6
28488.2
28434.5
28380.8
28326.9
1.09635
1.03243
0.96243
0.887552
0.809178
0.728708
0.647405
0.566302
0.486157
0.407443
0.330376
0.254946
0.180964
0.108105
0.035955
1.83481
1.72733
1.60934
1.48303
1.35088
1.21538
1.07874
0.942736
0.808643
0.677225
0.548796
0.423291
0.300347
0.179379
0.0596527
2.58516
2.43261
2.26447
2.08423
1.89582
1.70307
1.50932
1.31716
1.12837
0.94395
0.764242
0.589043
0.417735
0.2494
0.0829233
3.35351
3.15343
2.93166
2.69356
2.44503
2.19168
1.93822
1.68812
1.44363
1.20589
0.975119
0.75086
0.532119
0.317545
0.105557
4.14739
3.89594
3.61518
3.31327
2.999
2.68034
2.36365
2.05335
1.75202
1.46074
1.17941
0.9071
0.642296
0.383082
0.127308
4.9767
4.66793
4.31997
3.94547
3.55744
3.16707
2.78267
2.40952
2.05024
1.70551
1.37457
1.05576
0.746828
0.445149
0.147889
5.85477
5.47932
5.05148
4.59136
4.1184
3.64799
3.19055
2.7518
2.33385
1.93636
1.55748
1.19445
0.844044
0.502756
0.166974
6.80009
6.34292
5.81515
5.25
4.67683
4.11614
3.57993
3.07337
2.59697
2.14853
1.72443
1.32044
0.932067
0.554814
0.184203
7.84027
7.27614
6.61544
5.91598
5.22222
4.55967
3.93979
3.3649
2.83216
2.33629
1.87119
1.4307
1.0089
0.600185
0.199209
9.02239
8.30461
7.45343
6.57532
5.7352
4.9598
4.25445
3.61431
3.0305
2.49326
1.99327
1.52219
1.07258
0.637771
0.211639
10.4423
9.4671
8.31876
7.19721
6.18295
5.28917
4.50352
3.80726
3.18225
2.6129
2.08637
1.59212
1.12138
0.666643
0.221199
12.3243
10.8027
9.15681
7.71247
6.51032
5.51013
4.66293
3.92882
3.27825
2.68965
2.14709
1.63844
1.15411
0.686173
0.227694
15.269
12.2614
9.79206
7.98495
6.6353
5.57778
4.70906
3.96676
3.3122
2.72027
2.17379
1.66034
1.17039
0.696191
0.231076
20.5471
13.1813
9.76523
7.79969
6.46752
5.45617
4.6286
3.91688
3.28343
2.70533
2.16735
1.65863
1.17081
0.697075
0.231472
-0.24202
-0.728637
-1.22311
-1.7311
-2.25899
-2.81433
-3.40658
-4.04835
-4.75756
-5.56187
-6.50816
-7.68509
-9.28232
-11.7603
-16.3594
-0.240264
-0.723035
-1.21261
-1.71378
-2.23172
-2.77223
-3.34199
-3.94883
-4.6021
-5.31259
-6.09089
-6.93752
-7.79506
-8.32526
-6.86644
-0.236936
-0.712666
-1.194
-1.68472
-2.18869
-2.70975
-3.25156
-3.817
-4.40676
-5.01597
-5.62587
-6.1822
-6.53505
-6.27052
-4.28328
-0.232301
-0.698365
-1.16879
-1.64638
-2.13369
-2.63278
-3.14466
-3.66819
-4.19772
-4.71854
-5.19781
-5.56826
-5.70347
-5.41176
-4.65481
-0.226636
-0.680994
-1.13855
-1.60121
-2.07042
-2.54685
-3.02963
-3.51513
-3.99455
-4.44958
-4.84499
-5.11787
-5.16765
-4.87602
-4.33946
-0.220203
-0.661362
-1.1047
-1.55139
-2.00206
-2.45643
-2.91266
-3.36626
-3.80818
-4.22161
-4.57683
-4.8227
-4.86832
-4.51018
-3.05235
-0.213232
-0.640174
-1.06847
-1.49872
-1.93102
-2.36462
-2.79747
-3.22548
-3.64149
-4.03375
-4.38413
-4.66668
-4.84894
-4.90779
-4.99204
-0.205915
-0.618007
-1.03081
-1.44453
-1.85896
-2.27323
-2.68556
-3.09301
-3.49124
-3.87475
-4.23812
-4.58026
-4.91496
-5.28751
-5.76605
-0.198403
-0.595308
-0.992449
-1.38977
-1.78692
-2.18307
-2.57696
-2.96687
-3.35116
-3.72957
-4.10651
-4.49889
-4.95439
-5.59336
-6.72318
-0.190811
-0.572411
-0.953903
-1.33506
-1.71545
-2.09439
-2.47101
-2.84455
-3.2151
-3.58529
-3.96391
-4.3735
-4.86618
-5.55806
-6.72816
-0.183222
-0.549558
-0.915536
-1.28081
-1.64491
-2.00721
-2.36709
-2.72421
-3.07919
-3.43501
-3.79959
-4.19024
-4.63939
-5.19039
-5.81588
-0.175699
-0.526924
-0.877608
-1.22732
-1.57552
-1.92161
-2.26498
-2.60524
-2.9426
-3.27852
-3.61697
-3.9662
-4.34162
-4.77076
-5.31988
-0.168286
-0.504639
-0.840314
-1.1748
-1.50752
-1.83781
-2.16494
-2.4882
-2.80686
-3.12013
-3.42668
-3.72381
-4.00634
-4.26758
-4.49829
-0.161017
-0.482797
-0.8038
-1.12346
-1.44114
-1.7561
-2.0675
-2.37425
-2.67477
-2.96623
-3.24275
-3.49143
-3.68561
-3.7854
-3.85374
-0.153916
-0.46147
-0.768179
-1.07344
-1.37657
-1.6768
-1.9732
-2.26453
-2.54885
-2.82257
-3.07798
-3.29678
-3.43024
-3.32488
-2.37829
-0.146999
-0.440705
-0.733527
-1.02483
-1.31395
-1.60009
-1.88235
-2.1596
-2.43019
-2.69147
-2.93846
-3.16128
-3.34053
-3.44839
-3.54856
-0.140277
-0.420533
-0.699888
-0.977709
-1.25332
-1.52599
-1.79492
-2.05921
-2.31792
-2.57016
-2.81557
-3.05594
-3.30022
-3.5771
-3.95115
-0.133755
-0.400966
-0.667279
-0.932069
-1.19468
-1.45443
-1.71062
-1.96261
-2.21005
-2.45348
-2.69602
-2.94777
-3.23712
-3.63817
-4.33538
-0.127432
-0.382004
-0.635694
-0.887895
-1.13798
-1.38529
-1.62918
-1.86911
-2.10489
-2.33732
-2.56994
-2.81338
-3.09629
-3.49344
-4.2083
-0.121306
-0.363636
-0.605112
-0.84515
-1.08314
-1.31845
-1.55042
-1.77843
-2.00197
-2.22092
-2.43623
-2.65147
-2.87599
-3.12792
-3.4057
-0.115371
-0.345842
-0.5755
-0.803787
-1.03012
-1.25387
-1.47436
-1.6908
-1.90216
-2.10695
-2.30246
-2.48303
-2.63654
-2.74433
-2.85759
-0.109617
-0.328598
-0.546814
-0.763745
-0.978841
-1.19151
-1.40106
-1.60662
-1.80686
-1.99934
-2.17895
-2.3333
-2.42872
-2.35683
-1.68846
-0.104034
-0.311868
-0.518997
-0.724942
-0.929206
-1.13126
-1.33048
-1.52609
-1.71686
-1.9006
-2.07287
-2.22444
-2.33699
-2.38347
-2.40022
-0.0986092
-0.295614
-0.491978
-0.687274
-0.88107
-1.07292
-1.26237
-1.44887
-1.6317
-1.80974
-1.98107
-2.14261
-2.29103
-2.43069
-2.60575
-0.0933279
-0.279791
-0.46568
-0.650618
-0.834244
-1.01622
-1.19626
-1.37414
-1.54981
-1.72346
-1.89599
-2.06982
-2.25107
-2.45325
-2.70047
-0.0881761
-0.264355
-0.440021
-0.614845
-0.788529
-0.960829
-1.13161
-1.30092
-1.46926
-1.63791
-1.80992
-1.99183
-2.19649
-2.44445
-2.74618
-0.0831403
-0.249265
-0.414928
-0.579839
-0.743744
-0.906458
-1.06793
-1.22835
-1.38844
-1.54997
-1.71692
-1.89796
-2.11176
-2.39822
-2.84423
-0.0782093
-0.234485
-0.390339
-0.545507
-0.699757
-0.852919
-1.00494
-1.15596
-1.30658
-1.45821
-1.61407
-1.78131
-1.97652
-2.24113
-2.69619
-0.0733739
-0.219989
-0.366211
-0.511791
-0.656499
-0.800145
-0.942599
-1.08383
-1.22399
-1.36348
-1.50324
-1.64518
-1.79301
-1.95172
-2.10273
-0.0686274
-0.205757
-0.342516
-0.478659
-0.613954
-0.74817
-0.88108
-1.01242
-1.14181
-1.26851
-1.39086
-1.50492
-1.60191
-1.66759
-1.72803
-0.0639646
-0.191776
-0.319233
-0.4461
-0.572134
-0.697078
-0.820623
-0.942334
-1.06147
-1.17652
-1.28418
-1.37649
-1.43248
-1.38708
-0.988755
-0.0593813
-0.178032
-0.296348
-0.414101
-0.531052
-0.646934
-0.761415
-0.874014
-0.983927
-1.08963
-1.18811
-1.27326
-1.33342
-1.35163
-1.34612
-0.0548731
-0.164515
-0.273844
-0.382645
-0.490694
-0.597742
-0.70349
-0.807538
-0.909281
-1.00773
-1.10126
-1.18735
-1.26345
-1.33261
-1.42695
-0.050435
-0.151209
-0.251695
-0.351696
-0.451013
-0.549432
-0.646726
-0.742641
-0.836898
-0.929227
-1.01952
-1.10836
-1.19827
-1.29609
-1.41286
-0.0460617
-0.138098
-0.229873
-0.321211
-0.411939
-0.501887
-0.590901
-0.678876
-0.765833
-0.852106
-0.93878
-1.02859
-1.12755
-1.2464
-1.39598
-0.0417472
-0.125163
-0.208345
-0.291138
-0.373392
-0.454972
-0.53578
-0.615801
-0.695223
-0.774686
-0.855827
-0.942455
-1.04299
-1.17535
-1.37567
-0.0374853
-0.112386
-0.187079
-0.261427
-0.3353
-0.40858
-0.481188
-0.553124
-0.624568
-0.696079
-0.769038
-0.846637
-0.936324
-1.05707
-1.26767
-0.0332703
-0.0997498
-0.166046
-0.232038
-0.297606
-0.36264
-0.427047
-0.490774
-0.553849
-0.616446
-0.679006
-0.742407
-0.808066
-0.876356
-0.929112
-0.0290964
-0.0872364
-0.145218
-0.202933
-0.260273
-0.317123
-0.373364
-0.428863
-0.483445
-0.536821
-0.58837
-0.636592
-0.677961
-0.706418
-0.731881
-0.0249578
-0.0748294
-0.124568
-0.174081
-0.223269
-0.272017
-0.320184
-0.367574
-0.413864
-0.458448
-0.500026
-0.535524
-0.556803
-0.538545
-0.3831
-0.0208486
-0.0625113
-0.104069
-0.145448
-0.186561
-0.227303
-0.267533
-0.307036
-0.345455
-0.382146
-0.415886
-0.444316
-0.463085
-0.465928
-0.458444
-0.0167621
-0.0502625
-0.0836902
-0.116991
-0.150101
-0.182935
-0.215375
-0.247239
-0.278234
-0.307879
-0.335415
-0.359807
-0.380409
-0.40047
-0.442057
-0.0126911
-0.0380612
-0.0633941
-0.0886606
-0.113823
-0.13883
-0.163606
-0.188034
-0.211938
-0.235064
-0.257109
-0.277917
-0.298092
-0.320049
-0.345253
-0.00862738
-0.0258828
-0.0431394
-0.0603957
-0.0776459
-0.0948778
-0.112069
-0.129183
-0.146171
-0.162985
-0.179648
-0.196454
-0.214524
-0.237358
-0.277231
-0.00456235
-0.0137008
-0.0228804
-0.0321288
-0.0414737
-0.0509447
-0.0605753
-0.0704094
-0.080513
-0.090999
-0.102072
-0.114098
-0.127632
-0.142819
-0.153704
-0.000486908
-0.00148756
-0.00256941
-0.00378884
-0.00520664
-0.00689226
-0.00893133
-0.0114387
-0.0145788
-0.0185925
-0.02382
-0.0306808
-0.0395769
-0.0512508
-0.0736524
0.00360803
0.0107845
0.0178412
0.0246945
0.0312535
0.0374138
0.0430468
0.047981
0.051973
0.0546698
0.055581
0.0541629
0.0504233
0.0477839
0.0661109
0.00773127
0.0231422
0.0383972
0.0533877
0.0679971
0.0820938
0.0955189
0.108064
0.119435
0.129185
0.136614
0.140632
0.139676
0.132275
0.121803
0.0118911
0.0356106
0.0591406
0.0823508
0.105103
0.127248
0.14861
0.168972
0.188033
0.205325
0.220031
0.230568
0.23342
0.218914
0.150774
0.0160953
0.0482128
0.08011
0.111637
0.142638
0.172952
0.202403
0.230793
0.257871
0.283273
0.306358
0.325853
0.339237
0.342814
0.341845
0.0203511
0.0609703
0.10134
0.141292
0.180657
0.219263
0.256942
0.293532
0.328883
0.362844
0.395194
0.425395
0.451882
0.469886
0.461353
0.0246651
0.073903
0.122864
0.171361
0.219209
0.266225
0.312244
0.35714
0.40087
0.443547
0.485538
0.52753
0.570438
0.615406
0.67003
0.0290438
0.0870303
0.144712
0.201885
0.258343
0.313886
0.368333
0.421565
0.473596
0.52474
0.575899
0.629046
0.687582
0.754244
0.810982
0.0334935
0.100371
0.166918
0.23291
0.298118
0.362313
0.425274
0.486832
0.546949
0.605933
0.664897
0.726835
0.799105
0.899995
1.08145
0.0380199
0.113943
0.189512
0.264484
0.338603
0.411602
0.483196
0.553105
0.621099
0.687152
0.751847
0.817464
0.890775
0.989825
1.15725
0.0426283
0.127762
0.212523
0.296653
0.379872
0.461871
0.542294
0.620715
0.696606
0.769326
0.838172
0.902764
0.964592
1.0322
1.13393
0.0473225
0.141841
0.235976
0.329457
0.421991
0.513239
0.602789
0.690087
0.774324
0.854203
0.927467
0.989999
1.03442
1.0509
1.05796
0.0521051
0.156188
0.259884
0.362923
0.465006
0.565792
0.664851
0.761588
0.855077
0.943685
1.02423
1.08983
1.12366
1.07616
0.758085
0.0569765
0.170804
0.284251
0.397053
0.508926
0.619547
0.728528
0.83535
0.939224
1.03878
1.13138
1.21172
1.26941
1.28934
1.29024
0.0619354
0.185685
0.309067
0.431832
0.553716
0.674443
0.793707
0.911162
1.02637
1.13871
1.24708
1.34934
1.4414
1.51574
1.55358
0.0669789
0.200821
0.334313
0.467222
0.599313
0.730355
0.860143
0.988534
1.11552
1.24141
1.36701
1.49408
1.6257
1.76752
1.93954
0.0721029
0.216199
0.359965
0.503182
0.645637
0.787138
0.927549
1.06688
1.20545
1.3443
1.48594
1.63565
1.80293
1.99833
2.19368
0.0773032
0.231806
0.385997
0.539669
0.692623
0.844677
0.995707
1.14574
1.29517
1.44526
1.59928
1.76503
1.96065
2.2292
2.68521
0.0825753
0.247628
0.412387
0.576654
0.740232
0.902923
1.06455
1.22502
1.38444
1.5435
1.70448
1.87366
2.06774
2.3299
2.76876
0.0879148
0.263653
0.439116
0.614116
0.788451
0.961901
1.1342
1.30502
1.47394
1.64041
1.80398
1.96501
2.12756
2.3079
2.54847
0.0933171
0.279867
0.466165
0.652033
0.83728
1.02167
1.20487
1.38635
1.56512
1.73933
1.90524
2.05531
2.17502
2.24407
2.30226
0.0987766
0.296255
0.493506
0.690376
0.886697
1.08225
1.27673
1.46953
1.65947
1.84402
2.0175
2.16668
2.25766
2.1878
1.56151
0.104287
0.312796
0.521106
0.729094
0.936633
1.14358
1.34973
1.55468
1.75756
1.95637
2.14662
2.31845
2.45199
2.51792
2.55461
0.109843
0.329469
0.548925
0.768113
0.986967
1.20545
1.42355
1.64126
1.85845
2.07465
2.28851
2.49681
2.69325
2.86835
3.00533
0.115438
0.346257
0.57692
0.807353
1.03754
1.26756
1.49763
1.72818
1.96001
2.19453
2.43423
2.68338
2.9493
3.24523
3.60931
0.121069
0.363149
0.605064
0.846749
1.08822
1.32963
1.57135
1.81418
2.05967
2.3108
2.57336
2.85827
3.18449
3.57475
3.99284
0.12674
0.380148
0.633355
0.886279
1.13892
1.39145
1.64428
1.89831
2.15538
2.4191
2.69693
3.00444
3.37518
3.88489
4.72608
0.132457
0.397278
0.66183
0.925983
1.18969
1.45303
1.71633
1.98031
2.24642
2.51757
2.79984
3.10664
3.46933
3.9648
4.78901
0.138237
0.414584
0.690568
0.96598
1.24068
1.51461
1.78788
2.06079
2.33392
2.60827
2.88567
3.16999
3.47121
3.81636
4.25725
0.144099
0.432134
0.719685
1.00645
1.29217
1.57662
1.85965
2.14108
2.42052
2.69681
2.96664
3.22153
3.44254
3.60136
3.76677
0.150072
0.450009
0.749328
1.04762
1.3445
1.63958
1.93248
2.22269
2.50926
2.78978
3.05791
3.29654
3.45699
3.38171
2.44503
0.156184
0.468301
0.779662
1.08975
1.39805
1.70402
2.00713
2.3068
2.60213
2.89128
3.1696
3.42579
3.63504
3.76018
3.86865
0.162465
0.487103
0.810855
1.1331
1.45317
1.77039
2.08412
2.39385
2.69925
3.00022
3.29658
3.58753
3.87141
4.15015
4.44097
0.168943
0.506504
0.843072
1.17791
1.51022
1.83913
2.16384
2.48384
2.79937
3.11226
3.42723
3.7541
4.11125
4.5316
5.08349
0.17564
0.526578
0.876458
1.22445
1.56958
1.91074
2.24677
2.57686
2.90126
3.22277
3.5495
3.89953
4.30707
4.82157
5.44469
0.182567
0.547369
0.911122
1.27294
1.63166
1.98583
2.33375
2.67376
3.00507
3.32955
3.65546
4.0049
4.42847
5.03597
6.07569
0.189716
0.568868
0.947097
1.32352
1.69684
2.06521
2.42615
2.77661
3.11353
3.43523
3.74496
4.05867
4.42198
4.95005
5.94305
0.197053
0.590986
0.984291
1.3762
1.76538
2.14967
2.52573
2.8888
3.23246
3.54909
3.83156
4.07786
4.30091
4.54109
4.83007
0.204503
0.613513
1.02241
1.43072
1.83726
2.23976
2.63427
3.01435
3.37005
3.68655
3.94312
4.11307
4.16777
4.09806
4.05387
0.211942
0.636089
1.0609
1.4864
1.91186
2.33531
2.75272
3.15676
3.53474
3.8655
4.11469
4.22817
4.12084
3.63713
2.30507
0.219189
0.658173
1.09887
1.54205
1.98779
2.43497
2.88038
3.31716
3.73213
4.10096
4.38035
4.49646
4.3351
3.76514
2.83259
0.226003
0.679034
1.13507
1.59585
2.06263
2.53577
3.01393
3.49263
3.96144
4.3984
4.75923
4.95729
4.83287
4.14475
2.82195
0.232095
0.697776
1.16791
1.6454
2.13297
2.63299
3.14701
3.67489
4.21278
4.74855
5.25096
5.64188
5.72183
4.96487
1.98733
0.23714
0.71339
1.1956
1.68788
2.19459
2.72038
3.27036
3.85011
4.46548
5.12175
5.8199
6.54217
7.19167
7.32687
4.94232
0.240803
0.724829
1.21622
1.72026
2.24284
2.79087
3.37296
4.00051
4.68974
5.46578
6.37188
7.49261
9.01817
11.4389
16.2029
15.7337
10.9199
8.55673
7.10128
6.0426
5.18862
4.45641
3.80472
3.21007
2.65751
2.13654
1.63924
1.1592
0.690942
0.229562
4.10464
6.69211
6.69474
6.14326
5.49254
4.84909
4.23676
3.65827
3.11066
2.58948
2.09014
1.60819
1.13946
0.680016
0.226066
0.95631
4.25908
5.21728
5.25393
4.93721
4.48776
3.99347
3.49029
2.99278
2.5062
2.03156
1.56788
1.11324
0.665239
0.221294
1.41952
3.45409
4.37954
4.60976
4.47379
4.15739
3.75623
3.31827
2.86724
2.41455
1.96529
1.52123
1.08233
0.647613
0.215566
2.44126
3.41912
4.02436
4.21966
4.13546
3.88571
3.54443
3.15524
2.74275
2.32042
1.89534
1.47092
1.04848
0.628099
0.209192
3.0171
3.64268
3.95363
4.02347
3.91189
3.67743
3.36578
3.0083
2.62499
2.22811
1.82483
1.41917
1.01313
0.607531
0.202441
4.19141
4.08447
4.05012
3.95308
3.77347
3.52259
3.21885
2.87918
2.51659
2.14016
1.75591
1.36761
0.97744
0.586578
0.195534
4.7954
4.47562
4.18991
3.93987
3.68438
3.40429
3.09674
2.7659
2.41769
2.05755
1.68973
1.31727
0.942184
0.565722
0.188633
5.81578
4.84285
4.30472
3.93027
3.6122
3.30492
2.9907
2.66458
2.32699
1.98019
1.62671
1.26871
0.907835
0.545275
0.181847
5.92156
4.90791
4.30566
3.88135
3.53236
3.21023
2.8928
2.57112
2.24259
1.9074
1.56675
1.22207
0.874619
0.525406
0.175236
5.28799
4.68703
4.18285
3.77997
3.43372
3.11214
2.79776
2.48235
2.16274
1.83831
1.50954
1.17732
0.842585
0.506178
0.168828
4.93028
4.39875
3.98953
3.63913
3.31781
3.00893
2.70333
2.3964
2.08617
1.77216
1.45466
1.13426
0.811675
0.487585
0.162623
4.30343
4.02536
3.75521
3.47795
3.19314
2.90332
2.60974
2.31266
2.01215
1.70838
1.40173
1.09268
0.781777
0.469576
0.15661
3.74808
3.64633
3.52571
3.32188
3.07182
2.80023
2.51848
2.23123
1.94032
1.64655
1.35042
1.05234
0.75275
0.45208
0.150765