/*--------------------------------*- C++ -*----------------------------------*\
| =========                 |                                                 |
| \\      /  F ield         | OpenFOAM: The Open Source CFD Toolbox           |
|  \\    /   O peration     | Version:  5.x                                   |
|   \\  /    A nd           | Web:      www.OpenFOAM.org                      |
|    \\/     M anipulation  |                                                 |
\*---------------------------------------------------------------------------*/
FoamFile
{
    version     2.0;
    format      ascii;
    class       volScalarField;
    location    "1.4";
    object      T;
}
// * * * * * * * * * * * * * * * * * * * * * * * * * * * * * * * * * * * * * //

dimensions      [0 0 0 1 0 0 0];

internalField   nonuniform List<scalar> 
6300
(
322.734
322.202
321.67
321.14
320.611
320.084
319.56
319.039
318.522
318.009
317.5
316.996
316.498
316.005
315.519
322.734
322.201
321.669
321.138
320.609
320.082
319.557
319.036
318.518
318.004
317.495
316.991
316.492
315.999
315.513
322.733
322.199
321.667
321.135
320.605
320.077
319.551
319.029
318.51
317.995
317.485
316.98
316.481
315.987
315.5
322.732
322.197
321.663
321.13
320.598
320.069
319.542
319.018
318.498
317.982
317.471
316.964
316.463
315.968
315.48
322.731
322.195
321.659
321.124
320.59
320.059
319.53
319.004
318.482
317.964
317.451
316.943
316.44
315.944
315.454
322.73
322.191
321.653
321.116
320.58
320.046
319.515
318.987
318.462
317.942
317.426
316.915
316.411
315.912
315.421
322.729
322.187
321.646
321.106
320.568
320.031
319.497
318.966
318.438
317.914
317.396
316.882
316.375
315.874
315.381
322.727
322.183
321.638
321.095
320.553
320.013
319.476
318.941
318.41
317.883
317.36
316.843
316.333
315.829
315.334
322.726
322.177
321.63
321.083
320.537
319.994
319.452
318.913
318.377
317.846
317.319
316.798
316.284
315.777
315.279
322.724
322.172
321.62
321.069
320.52
319.972
319.425
318.882
318.341
317.805
317.272
316.746
316.227
315.716
315.215
322.722
322.166
321.61
321.055
320.5
319.948
319.397
318.848
318.301
317.759
317.22
316.687
316.162
315.646
315.141
322.72
322.159
321.599
321.039
320.48
319.922
319.365
318.811
318.258
317.708
317.162
316.621
316.088
315.564
315.054
322.717
322.152
321.587
321.022
320.458
319.895
319.333
318.772
318.212
317.654
317.099
316.548
316.004
315.469
314.951
322.715
322.145
321.575
321.005
320.436
319.867
319.299
318.731
318.164
317.598
317.033
316.469
315.909
315.357
314.823
322.713
322.138
321.563
320.988
320.413
319.839
319.264
318.69
318.115
317.54
316.964
316.387
315.808
315.227
314.654
315.079
314.684
314.294
313.909
313.53
313.155
312.787
312.424
312.067
311.717
311.372
311.035
310.704
310.379
310.062
309.751
309.447
309.15
308.86
308.577
308.3
308.03
307.767
307.51
307.259
307.013
306.774
306.54
306.311
306.086
305.866
305.651
305.439
305.231
305.026
304.825
304.626
304.429
304.235
304.043
303.852
303.662
303.473
303.285
303.098
302.91
302.723
302.535
302.346
302.156
301.966
301.773
301.579
301.382
301.183
300.981
300.776
300.567
300.355
300.139
299.918
299.694
299.464
299.229
298.989
298.744
298.493
298.237
297.974
297.706
297.431
297.15
296.863
296.569
296.269
295.962
295.648
295.328
295.001
294.668
294.328
293.982
293.629
293.27
292.905
292.533
292.155
291.772
291.382
290.987
315.072
314.677
314.287
313.902
313.522
313.147
312.779
312.416
312.059
311.708
311.363
311.025
310.694
310.369
310.052
309.741
309.437
309.14
308.85
308.567
308.291
308.021
307.758
307.501
307.25
307.005
306.766
306.532
306.304
306.08
305.86
305.645
305.434
305.226
305.022
304.821
304.622
304.426
304.232
304.04
303.85
303.66
303.472
303.285
303.097
302.91
302.723
302.536
302.348
302.158
301.968
301.776
301.582
301.385
301.187
300.985
300.78
300.572
300.361
300.145
299.925
299.7
299.471
299.237
298.997
298.752
298.502
298.245
297.983
297.715
297.44
297.159
296.872
296.578
296.278
295.971
295.658
295.337
295.011
294.677
294.338
293.991
293.638
293.279
292.913
292.542
292.164
291.78
291.39
290.995
315.059
314.663
314.272
313.887
313.506
313.131
312.762
312.399
312.041
311.69
311.345
311.006
310.675
310.35
310.032
309.721
309.417
309.121
308.831
308.548
308.272
308.003
307.74
307.484
307.234
306.989
306.751
306.518
306.29
306.067
305.848
305.634
305.424
305.217
305.014
304.813
304.615
304.42
304.227
304.036
303.846
303.658
303.47
303.283
303.097
302.911
302.724
302.538
302.35
302.162
301.972
301.781
301.588
301.392
301.195
300.994
300.79
300.583
300.372
300.157
299.938
299.714
299.485
299.251
299.012
298.768
298.518
298.262
298
297.732
297.458
297.177
296.89
296.597
296.296
295.99
295.676
295.356
295.029
294.696
294.356
294.009
293.656
293.297
292.931
292.559
292.181
291.796
291.406
291.01
315.039
314.642
314.25
313.864
313.483
313.107
312.737
312.373
312.015
311.663
311.317
310.978
310.646
310.321
310.003
309.692
309.388
309.091
308.801
308.519
308.244
307.975
307.713
307.458
307.208
306.965
306.728
306.496
306.269
306.048
305.83
305.617
305.408
305.203
305.001
304.802
304.605
304.411
304.219
304.029
303.841
303.653
303.467
303.281
303.096
302.911
302.726
302.541
302.354
302.167
301.979
301.789
301.597
301.403
301.207
301.007
300.805
300.599
300.389
300.175
299.957
299.734
299.506
299.273
299.035
298.792
298.542
298.287
298.026
297.758
297.485
297.204
296.918
296.624
296.324
296.018
295.704
295.384
295.057
294.724
294.384
294.037
293.683
293.324
292.957
292.585
292.206
291.821
291.43
291.033
315.011
314.614
314.221
313.834
313.452
313.075
312.704
312.339
311.98
311.627
311.28
310.94
310.607
310.281
309.963
309.652
309.348
309.051
308.762
308.48
308.205
307.938
307.677
307.423
307.175
306.933
306.697
306.467
306.242
306.022
305.806
305.595
305.388
305.184
304.983
304.786
304.591
304.399
304.209
304.02
303.833
303.648
303.463
303.279
303.095
302.912
302.728
302.544
302.36
302.174
301.988
301.8
301.61
301.417
301.222
301.025
300.824
300.62
300.411
300.199
299.982
299.761
299.535
299.303
299.066
298.824
298.575
298.321
298.06
297.794
297.52
297.241
296.954
296.661
296.362
296.055
295.742
295.422
295.095
294.761
294.421
294.074
293.72
293.359
292.993
292.619
292.24
291.854
291.462
291.065
314.977
314.578
314.185
313.797
313.414
313.036
312.663
312.297
311.936
311.581
311.233
310.892
310.558
310.232
309.913
309.601
309.297
309.001
308.712
308.431
308.157
307.891
307.631
307.378
307.132
306.892
306.658
306.43
306.207
305.989
305.776
305.567
305.362
305.16
304.962
304.767
304.574
304.384
304.196
304.009
303.824
303.641
303.458
303.276
303.094
302.913
302.731
302.549
302.367
302.183
301.999
301.813
301.625
301.435
301.242
301.047
300.848
300.646
300.44
300.23
300.015
299.795
299.57
299.34
299.105
298.864
298.617
298.363
298.104
297.838
297.566
297.287
297.001
296.708
296.409
296.102
295.789
295.469
295.142
294.808
294.467
294.12
293.765
293.404
293.037
292.663
292.283
291.896
291.503
291.104
314.935
314.536
314.141
313.752
313.367
312.988
312.614
312.246
311.883
311.526
311.177
310.834
310.499
310.171
309.852
309.54
309.236
308.94
308.652
308.372
308.099
307.834
307.576
307.325
307.081
306.843
306.612
306.386
306.166
305.95
305.74
305.533
305.331
305.132
304.936
304.744
304.553
304.366
304.18
303.996
303.814
303.632
303.452
303.272
303.093
302.913
302.734
302.555
302.375
302.194
302.012
301.829
301.644
301.456
301.266
301.074
300.878
300.678
300.475
300.267
300.054
299.836
299.614
299.385
299.152
298.912
298.666
298.415
298.157
297.892
297.62
297.342
297.057
296.764
296.465
296.159
295.846
295.526
295.199
294.865
294.523
294.175
293.82
293.459
293.091
292.716
292.335
291.947
291.552
291.151
314.887
314.486
314.09
313.7
313.314
312.933
312.557
312.187
311.821
311.462
311.11
310.765
310.428
310.1
309.78
309.468
309.164
308.868
308.581
308.301
308.03
307.766
307.51
307.262
307.02
306.785
306.557
306.334
306.117
305.905
305.697
305.494
305.295
305.099
304.907
304.717
304.53
304.345
304.162
303.981
303.801
303.623
303.445
303.268
303.091
302.914
302.737
302.561
302.383
302.206
302.027
301.847
301.665
301.481
301.295
301.105
300.912
300.716
300.515
300.31
300.1
299.885
299.664
299.438
299.207
298.969
298.725
298.475
298.218
297.955
297.684
297.407
297.122
296.831
296.532
296.226
295.914
295.594
295.266
294.931
294.589
294.24
293.884
293.522
293.153
292.778
292.396
292.007
291.611
291.208
314.83
314.428
314.032
313.641
313.254
312.872
312.494
312.12
311.751
311.388
311.032
310.685
310.346
310.016
309.696
309.384
309.08
308.785
308.498
308.219
307.949
307.687
307.434
307.188
306.95
306.719
306.494
306.274
306.061
305.853
305.649
305.45
305.254
305.062
304.873
304.686
304.502
304.321
304.141
303.964
303.787
303.612
303.437
303.263
303.089
302.915
302.741
302.567
302.393
302.219
302.044
301.868
301.69
301.51
301.327
301.141
300.952
300.759
300.562
300.361
300.154
299.941
299.723
299.499
299.27
299.035
298.793
298.545
298.29
298.028
297.758
297.481
297.197
296.906
296.609
296.304
295.991
295.671
295.344
295.008
294.665
294.315
293.958
293.595
293.226
292.85
292.467
292.077
291.679
291.274
314.765
314.362
313.966
313.575
313.188
312.804
312.423
312.046
311.672
311.304
310.943
310.592
310.251
309.92
309.599
309.288
308.984
308.69
308.403
308.125
307.856
307.597
307.347
307.105
306.87
306.643
306.422
306.207
305.997
305.793
305.594
305.4
305.209
305.021
304.835
304.652
304.471
304.293
304.118
303.944
303.772
303.601
303.429
303.258
303.087
302.915
302.744
302.574
302.404
302.233
302.063
301.891
301.717
301.542
301.363
301.182
300.997
300.809
300.616
300.418
300.215
300.005
299.79
299.568
299.341
299.109
298.87
298.625
298.372
298.112
297.843
297.566
297.283
296.992
296.695
296.391
296.08
295.76
295.432
295.095
294.75
294.398
294.04
293.677
293.307
292.931
292.548
292.157
291.758
291.351
314.689
314.288
313.893
313.504
313.118
312.733
312.349
311.965
311.585
311.209
310.842
310.485
310.141
309.81
309.49
309.179
308.877
308.583
308.296
308.018
307.75
307.494
307.247
307.01
306.781
306.558
306.342
306.131
305.926
305.727
305.534
305.345
305.159
304.975
304.794
304.614
304.437
304.263
304.092
303.923
303.756
303.589
303.421
303.253
303.084
302.916
302.747
302.58
302.414
302.248
302.083
301.917
301.748
301.577
301.403
301.227
301.048
300.865
300.677
300.484
300.284
300.078
299.864
299.645
299.421
299.192
298.957
298.715
298.465
298.206
297.938
297.662
297.377
297.087
296.791
296.49
296.18
295.861
295.533
295.194
294.846
294.491
294.131
293.766
293.398
293.023
292.641
292.25
291.849
291.439
314.602
314.203
313.812
313.428
313.046
312.662
312.274
311.882
311.49
311.102
310.724
310.361
310.013
309.682
309.366
309.06
308.759
308.464
308.175
307.897
307.629
307.375
307.134
306.904
306.682
306.466
306.254
306.046
305.846
305.653
305.467
305.286
305.106
304.928
304.75
304.573
304.399
304.228
304.062
303.9
303.739
303.578
303.415
303.249
303.082
302.915
302.748
302.584
302.423
302.263
302.105
301.946
301.783
301.617
301.448
301.276
301.103
300.927
300.747
300.559
300.364
300.16
299.948
299.729
299.507
299.282
299.053
298.817
298.571
298.315
298.046
297.767
297.481
297.19
296.896
296.598
296.294
295.977
295.648
295.305
294.952
294.59
294.226
293.862
293.497
293.126
292.746
292.355
291.952
291.54
314.499
314.106
313.72
313.349
312.979
312.596
312.204
311.798
311.39
310.98
310.587
310.212
309.863
309.534
309.228
308.932
308.634
308.337
308.041
307.759
307.489
307.239
307.005
306.787
306.576
306.366
306.158
305.952
305.756
305.569
305.394
305.223
305.052
304.879
304.704
304.529
304.355
304.187
304.027
303.874
303.723
303.569
303.411
303.248
303.081
302.912
302.747
302.584
302.428
302.276
302.128
301.979
301.823
301.662
301.494
301.328
301.161
300.996
300.827
300.646
300.456
300.252
300.04
299.819
299.598
299.377
299.159
298.934
298.693
298.439
298.168
297.885
297.59
297.297
297.005
296.718
296.424
296.111
295.782
295.431
295.069
294.693
294.324
293.958
293.603
293.244
292.867
292.477
292.07
291.657
314.372
313.997
313.607
313.269
312.931
312.542
312.154
311.718
311.294
310.833
310.426
310.026
309.682
309.353
309.076
308.808
308.506
308.21
307.887
307.602
307.322
307.081
306.851
306.658
306.471
306.263
306.061
305.843
305.653
305.468
305.313
305.164
304.998
304.835
304.657
304.485
304.3
304.137
303.98
303.845
303.713
303.565
303.416
303.249
303.085
302.904
302.741
302.575
302.429
302.282
302.153
302.022
301.87
301.715
301.54
301.38
301.217
301.071
300.922
300.748
300.566
300.357
300.145
299.907
299.69
299.469
299.273
299.072
298.835
298.589
298.305
298.018
297.697
297.404
297.107
296.847
296.581
296.268
295.946
295.575
295.203
294.788
294.414
294.039
293.714
293.386
293.007
292.624
292.197
291.795
314.194
313.909
313.421
313.188
312.958
312.488
312.172
311.62
311.254
310.606
310.256
309.757
309.482
309.098
308.913
308.732
308.368
308.121
307.679
307.438
307.097
306.908
306.646
306.519
306.396
306.152
305.986
305.696
305.54
305.326
305.224
305.128
304.94
304.814
304.6
304.459
304.213
304.081
303.899
303.811
303.727
303.561
303.446
303.248
303.113
302.871
302.736
302.54
302.427
302.264
302.182
302.096
301.921
301.795
301.565
301.435
301.246
301.152
301.055
300.858
300.717
300.465
300.288
299.966
299.786
299.525
299.395
299.262
298.989
298.795
298.446
298.203
297.761
297.515
297.158
296.983
296.805
296.439
296.181
295.719
295.401
294.824
294.507
294.048
293.827
293.605
293.149
292.837
292.286
291.975
290.547
290.059
289.564
289.063
288.555
288.043
287.525
287.003
286.477
285.947
285.415
284.881
284.345
283.807
283.269
290.554
290.066
289.571
289.069
288.561
288.047
287.529
287.006
286.48
285.95
285.417
284.882
284.346
283.808
283.269
290.569
290.08
289.584
289.081
288.572
288.057
287.538
287.014
286.486
285.955
285.422
284.886
284.348
283.809
283.27
290.591
290.101
289.603
289.098
288.588
288.072
287.551
287.025
286.496
285.963
285.428
284.891
284.352
283.812
283.271
290.621
290.128
289.629
289.122
288.61
288.091
287.568
287.04
286.509
285.974
285.437
284.898
284.357
283.814
283.272
290.658
290.164
289.661
289.152
288.637
288.116
287.589
287.059
286.525
285.988
285.448
284.906
284.362
283.818
283.273
290.704
290.206
289.701
289.189
288.67
288.145
287.615
287.081
286.544
286.003
285.461
284.916
284.369
283.822
283.274
290.758
290.257
289.748
289.231
288.708
288.179
287.645
287.107
286.566
286.022
285.475
284.927
284.377
283.827
283.276
290.821
290.316
289.802
289.28
288.752
288.218
287.679
287.136
286.591
286.042
285.492
284.94
284.386
283.832
283.277
290.894
290.384
289.864
289.336
288.801
288.261
287.717
287.169
286.618
286.065
285.51
284.953
284.396
283.838
283.279
290.977
290.461
289.934
289.399
288.856
288.309
287.758
287.204
286.647
286.089
285.529
284.968
284.406
283.844
283.281
291.074
290.55
290.013
289.468
288.916
288.36
287.802
287.241
286.678
286.115
285.55
284.984
284.417
283.851
283.284
291.186
290.651
290.101
289.543
288.98
288.415
287.848
287.28
286.711
286.141
285.571
285
284.429
283.857
283.286
291.321
290.766
290.196
289.622
289.046
288.471
287.895
287.32
286.744
286.168
285.593
285.017
284.441
283.864
283.288
291.492
290.896
290.297
289.702
289.113
288.526
287.942
287.359
286.777
286.196
285.614
285.033
284.452
283.871
283.29
322.71
322.131
321.552
320.972
320.393
319.813
319.233
318.653
318.071
317.488
316.903
316.313
315.716
315.1
314.435
322.708
322.125
321.541
320.958
320.374
319.79
319.205
318.619
318.032
317.443
316.85
316.252
315.644
315.019
314.362
322.706
322.119
321.531
320.944
320.356
319.767
319.177
318.587
317.994
317.4
316.801
316.198
315.586
314.961
314.32
322.704
322.113
321.522
320.93
320.337
319.745
319.151
318.555
317.959
317.359
316.756
316.149
315.536
314.915
314.29
322.702
322.107
321.512
320.916
320.32
319.723
319.125
318.526
317.924
317.321
316.715
316.105
315.491
314.871
314.242
322.701
322.102
321.503
320.903
320.303
319.702
319.1
318.497
317.892
317.285
316.676
316.064
315.449
314.833
314.218
322.699
322.096
321.494
320.89
320.287
319.682
319.076
318.469
317.861
317.251
316.638
316.025
315.409
314.796
314.192
322.697
322.091
321.485
320.878
320.271
319.663
319.054
318.443
317.831
317.218
316.603
315.986
315.369
314.752
314.135
322.695
322.086
321.476
320.866
320.256
319.644
319.032
318.418
317.803
317.186
316.568
315.948
315.328
314.708
314.096
322.694
322.081
321.468
320.855
320.241
319.626
319.011
318.394
317.775
317.156
316.534
315.911
315.286
314.658
314.023
322.692
322.076
321.46
320.844
320.227
319.609
318.99
318.371
317.749
317.126
316.502
315.875
315.246
314.615
313.983
322.691
322.072
321.453
320.834
320.214
319.593
318.971
318.348
317.724
317.098
316.471
315.841
315.209
314.572
313.926
322.689
322.068
321.446
320.824
320.201
319.577
318.953
318.327
317.7
317.072
316.442
315.809
315.174
314.536
313.895
322.688
322.064
321.439
320.814
320.188
319.562
318.935
318.307
317.677
317.046
316.414
315.779
315.142
314.501
313.851
322.687
322.06
321.432
320.805
320.177
319.548
318.918
318.288
317.656
317.022
316.387
315.751
315.113
314.472
313.83
322.685
322.056
321.426
320.796
320.166
319.534
318.902
318.269
317.635
316.999
316.362
315.724
315.085
314.445
313.811
322.684
322.052
321.42
320.788
320.155
319.521
318.887
318.252
317.615
316.977
316.338
315.698
315.057
314.415
313.771
322.683
322.049
321.414
320.78
320.145
319.509
318.872
318.235
317.596
316.957
316.316
315.673
315.03
314.386
313.745
322.682
322.046
321.409
320.772
320.135
319.497
318.858
318.219
317.578
316.937
316.294
315.649
315.003
314.354
313.699
322.681
322.042
321.404
320.765
320.126
319.486
318.845
318.204
317.561
316.918
316.273
315.626
314.978
314.328
313.675
322.68
322.04
321.399
320.758
320.117
319.475
318.833
318.189
317.545
316.9
316.253
315.605
314.955
314.302
313.642
322.679
322.037
321.394
320.752
320.109
319.465
318.821
318.175
317.529
316.882
316.234
315.585
314.934
314.282
313.628
322.678
322.034
321.39
320.745
320.101
319.455
318.809
318.162
317.515
316.866
316.217
315.566
314.915
314.263
313.614
322.677
322.032
321.386
320.74
320.093
319.446
318.798
318.15
317.501
316.851
316.2
315.548
314.895
314.242
313.588
322.676
322.029
321.382
320.734
320.086
319.437
318.788
318.138
317.488
316.836
316.184
315.53
314.876
314.222
313.571
322.676
322.027
321.378
320.729
320.079
319.429
318.778
318.127
317.475
316.822
316.168
315.513
314.858
314.201
313.543
322.675
322.025
321.374
320.724
320.073
319.421
318.769
318.117
317.463
316.809
316.153
315.497
314.84
314.182
313.525
322.674
322.023
321.371
320.719
320.067
319.414
318.761
318.107
317.452
316.796
316.14
315.482
314.823
314.161
313.495
322.674
322.021
321.368
320.715
320.061
319.407
318.753
318.097
317.441
316.784
316.127
315.467
314.807
314.144
313.48
322.673
322.019
321.365
320.71
320.056
319.401
318.745
318.089
317.431
316.773
316.115
315.454
314.793
314.129
313.46
322.672
322.017
321.362
320.707
320.051
319.395
318.738
318.08
317.422
316.763
316.103
315.442
314.78
314.117
313.451
322.672
322.016
321.36
320.703
320.046
319.389
318.731
318.073
317.414
316.754
316.093
315.431
314.769
314.106
313.444
322.671
322.014
321.357
320.7
320.042
319.384
318.725
318.066
317.406
316.745
316.084
315.421
314.758
314.094
313.429
322.671
322.013
321.355
320.697
320.038
319.379
318.72
318.059
317.399
316.737
316.075
315.412
314.748
314.083
313.42
322.671
322.012
321.353
320.694
320.034
319.375
318.714
318.053
317.392
316.73
316.067
315.403
314.738
314.072
313.405
322.67
322.011
321.351
320.691
320.031
319.371
318.71
318.048
317.386
316.723
316.059
315.394
314.729
314.063
313.397
322.67
322.01
321.35
320.689
320.028
319.367
318.705
318.043
317.38
316.717
316.052
315.387
314.721
314.053
313.382
322.67
322.009
321.348
320.687
320.026
319.364
318.702
318.039
317.375
316.711
316.046
315.38
314.713
314.045
313.375
322.669
322.008
321.347
320.685
320.023
319.361
318.698
318.035
317.371
316.706
316.041
315.375
314.707
314.038
313.367
322.669
322.007
321.346
320.684
320.021
319.359
318.695
318.032
317.367
316.702
316.036
315.37
314.702
314.033
313.363
322.669
322.007
321.345
320.682
320.02
319.356
318.693
318.029
317.364
316.699
316.033
315.366
314.698
314.029
313.36
322.669
322.006
321.344
320.681
320.018
319.355
318.691
318.027
317.362
316.696
316.03
315.362
314.694
314.025
313.356
322.669
322.006
321.343
320.68
320.017
319.353
318.689
318.025
317.36
316.694
316.027
315.36
314.692
314.023
313.353
322.669
322.006
321.343
320.68
320.016
319.352
318.688
318.023
317.358
316.692
316.025
315.358
314.689
314.02
313.35
322.669
322.006
321.343
320.679
320.016
319.352
318.688
318.023
317.357
316.691
316.024
315.356
314.688
314.019
313.348
322.669
322.006
321.342
320.679
320.016
319.352
318.687
318.022
317.357
316.691
316.024
315.356
314.687
314.018
313.347
322.669
322.006
321.343
320.679
320.016
319.352
318.687
318.022
317.357
316.691
316.024
315.356
314.687
314.018
313.347
322.669
322.006
321.343
320.68
320.016
319.352
318.688
318.023
317.358
316.691
316.024
315.357
314.688
314.019
313.348
322.669
322.006
321.343
320.68
320.017
319.353
318.689
318.024
317.359
316.693
316.026
315.358
314.69
314.02
313.349
322.669
322.006
321.344
320.681
320.018
319.354
318.69
318.026
317.361
316.695
316.028
315.361
314.692
314.022
313.351
322.669
322.007
321.344
320.682
320.019
319.356
318.692
318.028
317.363
316.698
316.031
315.364
314.695
314.026
313.355
322.669
322.007
321.345
320.683
320.021
319.358
318.695
318.031
317.366
316.701
316.035
315.368
314.699
314.03
313.359
322.669
322.008
321.347
320.685
320.023
319.36
318.698
318.034
317.37
316.705
316.039
315.372
314.705
314.036
313.366
322.67
322.009
321.348
320.687
320.025
319.363
318.701
318.038
317.374
316.71
316.044
315.378
314.711
314.043
313.372
322.67
322.01
321.349
320.689
320.028
319.366
318.705
318.042
317.379
316.715
316.05
315.385
314.718
314.051
313.384
322.67
322.011
321.351
320.691
320.031
319.37
318.709
318.047
317.384
316.721
316.057
315.392
314.726
314.059
313.391
322.671
322.012
321.353
320.694
320.034
319.374
318.714
318.053
317.391
316.728
316.064
315.4
314.734
314.068
313.403
322.671
322.013
321.355
320.697
320.038
319.379
318.719
318.059
317.397
316.735
316.072
315.408
314.743
314.077
313.409
322.671
322.014
321.357
320.7
320.042
319.384
318.725
318.065
317.405
316.744
316.081
315.418
314.753
314.086
313.416
322.672
322.016
321.36
320.703
320.046
319.389
318.731
318.072
317.413
316.753
316.091
315.428
314.764
314.098
313.431
322.673
322.018
321.362
320.707
320.051
319.395
318.738
318.08
317.422
316.763
316.102
315.44
314.777
314.111
313.442
322.673
322.019
321.365
320.711
320.056
319.401
318.745
318.089
317.432
316.773
316.114
315.453
314.791
314.128
313.463
322.674
322.021
321.368
320.715
320.062
319.408
318.753
318.098
317.442
316.785
316.127
315.468
314.807
314.145
313.478
322.674
322.023
321.372
320.72
320.068
319.415
318.762
318.108
317.453
316.797
316.141
315.483
314.824
314.165
313.508
322.675
322.025
321.375
320.725
320.074
319.423
318.771
318.119
317.465
316.811
316.155
315.499
314.841
314.183
313.524
322.676
322.028
321.379
320.73
320.081
319.431
318.781
318.13
317.478
316.825
316.171
315.516
314.859
314.203
313.55
322.677
322.03
321.383
320.736
320.088
319.44
318.791
318.142
317.491
316.84
316.187
315.533
314.878
314.221
313.563
322.678
322.032
321.387
320.742
320.096
319.449
318.802
318.154
317.505
316.855
316.204
315.552
314.897
314.24
313.576
322.678
322.035
321.392
320.748
320.104
319.459
318.814
318.168
317.52
316.872
316.223
315.572
314.919
314.263
313.605
322.679
322.038
321.396
320.755
320.112
319.469
318.826
318.182
317.536
316.89
316.242
315.593
314.942
314.287
313.626
322.68
322.041
321.401
320.761
320.121
319.48
318.839
318.196
317.553
316.909
316.263
315.616
314.968
314.317
313.665
322.681
322.044
321.406
320.769
320.13
319.492
318.852
318.212
317.571
316.929
316.285
315.641
314.995
314.347
313.693
322.682
322.047
321.412
320.776
320.14
319.503
318.866
318.228
317.589
316.949
316.308
315.666
315.024
314.382
313.744
322.684
322.051
321.417
320.784
320.15
319.516
318.881
318.245
317.608
316.971
316.332
315.693
315.053
314.413
313.773
322.685
322.054
321.423
320.792
320.161
319.529
318.896
318.262
317.628
316.993
316.356
315.719
315.082
314.445
313.815
322.686
322.058
321.429
320.801
320.172
319.542
318.912
318.281
317.649
317.015
316.381
315.746
315.11
314.473
313.835
322.687
322.062
321.436
320.81
320.183
319.556
318.928
318.299
317.67
317.039
316.407
315.774
315.139
314.502
313.856
322.689
322.066
321.442
320.819
320.195
319.57
318.945
318.319
317.692
317.064
316.434
315.803
315.171
314.536
313.9
322.69
322.07
321.449
320.829
320.207
319.585
318.963
318.339
317.715
317.089
316.462
315.834
315.204
314.571
313.93
322.691
322.074
321.457
320.839
320.22
319.601
318.981
318.36
317.739
317.116
316.491
315.866
315.239
314.611
313.985
322.693
322.079
321.464
320.849
320.234
319.617
319
318.382
317.763
317.143
316.521
315.899
315.276
314.651
314.021
322.694
322.083
321.472
320.86
320.247
319.634
319.02
318.405
317.789
317.171
316.552
315.933
315.313
314.695
314.086
322.696
322.088
321.48
320.871
320.262
319.652
319.041
318.429
317.815
317.2
316.584
315.967
315.349
314.734
314.12
322.698
322.093
321.488
320.883
320.277
319.67
319.062
318.453
317.843
317.23
316.616
316.001
315.385
314.771
314.166
322.699
322.098
321.497
320.895
320.292
319.689
319.085
318.479
317.871
317.262
316.65
316.035
315.419
314.802
314.187
322.701
322.104
321.506
320.908
320.309
319.709
319.108
318.506
317.901
317.295
316.685
316.071
315.453
314.832
314.205
322.703
322.109
321.515
320.921
320.326
319.73
319.133
318.534
317.933
317.33
316.723
316.11
315.491
314.865
314.234
322.705
322.115
321.525
320.934
320.343
319.751
319.158
318.564
317.967
317.368
316.764
316.154
315.534
314.901
314.252
322.707
322.121
321.535
320.948
320.361
319.774
319.185
318.595
318.004
317.409
316.81
316.204
315.587
314.947
314.268
322.709
322.127
321.545
320.962
320.38
319.797
319.213
318.628
318.042
317.453
316.861
316.263
315.654
315.023
314.334
291.711
291.018
290.384
289.772
289.171
288.575
287.984
287.395
286.807
286.22
285.634
285.048
284.463
283.878
283.293
291.774
291.089
290.447
289.827
289.219
288.617
288.02
287.426
286.833
286.242
285.652
285.062
284.473
283.883
283.294
291.78
291.13
290.495
289.874
289.262
288.656
288.054
287.456
286.859
286.263
285.669
285.075
284.482
283.889
283.296
291.79
291.16
290.534
289.915
289.301
288.692
288.087
287.484
286.883
286.284
285.686
285.088
284.491
283.895
283.298
291.804
291.188
290.568
289.951
289.337
288.725
288.117
287.511
286.907
286.304
285.702
285.101
284.5
283.9
283.3
291.831
291.217
290.601
289.985
289.37
288.757
288.146
287.537
286.929
286.323
285.717
285.113
284.509
283.905
283.302
291.854
291.248
290.634
290.018
289.402
288.787
288.173
287.561
286.95
286.341
285.732
285.124
284.517
283.91
283.303
291.9
291.285
290.669
290.051
289.433
288.816
288.199
287.585
286.971
286.358
285.746
285.135
284.525
283.915
283.305
291.934
291.323
290.704
290.084
289.463
288.843
288.225
287.607
286.991
286.375
285.76
285.146
284.533
283.919
283.306
291.997
291.366
290.74
290.116
289.493
288.871
288.249
287.629
287.01
286.391
285.774
285.157
284.54
283.924
283.308
292.032
291.405
290.776
290.148
289.522
288.897
288.273
287.65
287.028
286.407
285.786
285.167
284.547
283.928
283.309
292.085
291.444
290.81
290.179
289.55
288.923
288.296
287.67
287.046
286.422
285.799
285.176
284.554
283.932
283.311
292.115
291.478
290.842
290.209
289.577
288.947
288.318
287.69
287.063
286.436
285.811
285.185
284.561
283.936
283.312
292.157
291.511
290.873
290.237
289.603
288.971
288.339
287.709
287.079
286.45
285.822
285.194
284.567
283.94
283.313
292.177
291.539
290.901
290.264
289.629
288.994
288.36
287.727
287.095
286.464
285.833
285.203
284.573
283.944
283.315
292.197
291.566
290.929
290.291
289.653
289.016
288.38
287.745
287.11
286.477
285.844
285.211
284.579
283.947
283.316
292.238
291.597
290.957
290.316
289.677
289.037
288.399
287.762
287.125
286.489
285.854
285.219
284.585
283.951
283.317
292.266
291.628
290.985
290.342
289.7
289.058
288.418
287.778
287.139
286.501
285.864
285.227
284.59
283.954
283.318
292.316
291.661
291.013
290.367
289.722
289.078
288.436
287.794
287.153
286.513
285.873
285.234
284.596
283.957
283.319
292.342
291.691
291.04
290.391
289.743
289.097
288.453
287.809
287.166
286.524
285.882
285.241
284.601
283.96
283.32
292.38
291.719
291.065
290.413
289.764
289.116
288.469
287.823
287.178
286.534
285.891
285.248
284.605
283.963
283.321
292.401
291.743
291.087
290.434
289.783
289.133
288.484
287.837
287.19
286.544
285.899
285.254
284.61
283.966
283.322
292.429
291.766
291.108
290.454
289.801
289.149
288.499
287.85
287.202
286.554
285.907
285.26
284.614
283.968
283.323
292.442
291.784
291.127
290.472
289.818
289.165
288.513
287.862
287.212
286.563
285.914
285.266
284.618
283.971
283.324
292.455
291.802
291.145
290.489
289.834
289.18
288.526
287.874
287.222
286.572
285.921
285.272
284.622
283.973
283.324
292.48
291.821
291.163
290.506
289.849
289.193
288.539
287.885
287.232
286.58
285.928
285.277
284.626
283.976
283.325
292.497
291.839
291.18
290.521
289.863
289.206
288.55
287.895
287.241
286.587
285.934
285.282
284.63
283.978
283.326
292.526
291.859
291.197
290.536
289.877
289.219
288.561
287.905
287.249
286.595
285.94
285.286
284.633
283.98
283.327
292.541
291.876
291.213
290.55
289.89
289.23
288.572
287.914
287.257
286.601
285.946
285.291
284.636
283.981
283.327
292.562
291.892
291.227
290.563
289.902
289.241
288.581
287.923
287.265
286.608
285.951
285.295
284.639
283.983
283.328
292.573
291.905
291.239
290.575
289.912
289.251
288.59
287.931
287.272
286.613
285.956
285.298
284.642
283.985
283.328
292.588
291.917
291.251
290.586
289.922
289.26
288.599
287.938
287.278
286.619
285.96
285.302
284.644
283.986
283.329
292.594
291.927
291.261
290.595
289.931
289.268
288.606
287.945
287.284
286.624
285.964
285.305
284.646
283.988
283.329
292.6
291.936
291.27
290.604
289.94
289.276
288.613
287.951
287.289
286.628
285.968
285.308
284.648
283.989
283.33
292.612
291.945
291.278
290.612
289.947
289.283
288.619
287.956
287.294
286.633
285.972
285.311
284.65
283.99
283.33
292.62
291.953
291.286
290.62
289.954
289.289
288.625
287.962
287.299
286.637
285.975
285.313
284.652
283.991
283.33
292.632
291.962