/*--------------------------------*- C++ -*----------------------------------*\
| =========                 |                                                 |
| \\      /  F ield         | OpenFOAM: The Open Source CFD Toolbox           |
|  \\    /   O peration     | Version:  5.x                                   |
|   \\  /    A nd           | Web:      www.OpenFOAM.org                      |
|    \\/     M anipulation  |                                                 |
\*---------------------------------------------------------------------------*/
FoamFile
{
    version     2.0;
    format      ascii;
    class       volScalarField;
    location    "2.8";
    object      gradTx;
}
// * * * * * * * * * * * * * * * * * * * * * * * * * * * * * * * * * * * * * //

dimensions      [0 -1 0 1 0 0 0];

internalField   nonuniform List<scalar> 
6300
(
-48.1559
-48.1297
-48.0774
-47.9986
-47.8932
-47.7611
-47.6021
-47.4162
-47.2038
-46.9657
-46.7027
-46.4165
-46.1087
-45.7814
-45.4362
-48.1819
-48.1559
-48.1037
-48.0251
-47.92
-47.7879
-47.6288
-47.4426
-47.2296
-46.9904
-46.726
-46.438
-46.1283
-45.7991
-45.4525
-48.2339
-48.2081
-48.1563
-48.0782
-47.9735
-47.8417
-47.6826
-47.4958
-47.2815
-47.0402
-46.7729
-46.4812
-46.1674
-45.8342
-45.4844
-48.3117
-48.2862
-48.235
-48.1578
-48.054
-47.9229
-47.7639
-47.5765
-47.3604
-47.116
-46.844
-46.5464
-46.2258
-45.8858
-45.5304
-48.4148
-48.3899
-48.3398
-48.264
-48.1616
-48.0318
-47.8735
-47.6857
-47.4677
-47.2192
-46.9408
-46.6345
-46.3036
-45.9529
-45.5882
-48.5428
-48.5187
-48.4702
-48.3965
-48.2966
-48.1692
-48.0126
-47.8252
-47.6053
-47.3521
-47.0655
-46.7473
-46.4012
-46.034
-45.6541
-48.6947
-48.6718
-48.6256
-48.5552
-48.4591
-48.3357
-48.1824
-47.9969
-47.7763
-47.5184
-47.2219
-46.8877
-46.52
-46.1276
-45.7232
-48.8694
-48.8482
-48.8052
-48.7394
-48.649
-48.5317
-48.3845
-48.2035
-47.9846
-47.7232
-47.4159
-47.0615
-46.6636
-46.233
-45.7887
-49.0653
-49.0462
-49.0075
-48.948
-48.8657
-48.7577
-48.6202
-48.4481
-48.2351
-47.9739
-47.6569
-47.2788
-46.84
-46.352
-45.8423
-49.28
-49.2638
-49.2306
-49.1793
-49.1079
-49.013
-48.8904
-48.7335
-48.5339
-48.2802
-47.959
-47.5568
-47.0655
-46.4927
-45.8752
-49.511
-49.4981
-49.4717
-49.4308
-49.3733
-49.2961
-49.1946
-49.0617
-48.8866
-48.6539
-48.342
-47.9239
-47.3725
-46.6781
-45.8817
-49.7547
-49.7457
-49.7273
-49.6986
-49.6582
-49.6035
-49.5303
-49.4318
-49.2968
-49.1067
-48.8313
-48.4243
-47.8224
-46.9655
-45.868
-50.0072
-50.0025
-49.9929
-49.9781
-49.9573
-49.9291
-49.8911
-49.8384
-49.7621
-49.6447
-49.4522
-49.1194
-48.5273
-47.4934
-45.8757
-50.2643
-50.2641
-50.2637
-50.2634
-50.2636
-50.2645
-50.2664
-50.2685
-50.2684
-50.2576
-50.2135
-50.0738
-49.6739
-48.6048
-46.0802
-50.5216
-50.5256
-50.5342
-50.5481
-50.5689
-50.5989
-50.6412
-50.7009
-50.7851
-50.904
-51.0702
-51.2883
-51.4895
-51.1715
-47.4366
-45.1062
-44.7942
-44.4716
-44.1378
-43.7919
-43.4329
-43.0594
-42.6701
-42.2642
-41.8412
-41.4013
-40.9453
-40.4747
-39.9913
-39.4977
-38.9964
-38.4903
-37.9824
-37.4756
-36.973
-36.4775
-35.9921
-35.5196
-35.0625
-34.6231
-34.2035
-33.8052
-33.4294
-33.077
-32.7486
-32.4441
-32.1634
-31.906
-31.6712
-31.4582
-31.2658
-31.0931
-30.939
-30.8024
-30.6824
-30.5779
-30.4882
-30.4122
-30.3495
-30.2996
-30.2624
-30.2381
-30.2271
-30.2303
-30.2486
-30.2827
-30.3337
-30.4023
-30.4892
-30.5945
-30.7185
-30.861
-31.0215
-31.1993
-31.3937
-31.6035
-31.8278
-32.0653
-32.3151
-32.5761
-32.8473
-33.1278
-33.4169
-33.7136
-34.0172
-34.327
-34.6422
-34.9625
-35.2872
-35.6161
-35.9488
-36.285
-36.6244
-36.9667
-37.3115
-37.6586
-38.0075
-38.3581
-38.7098
-39.0621
-39.4143
-39.7653
-40.1137
-40.458
-40.796
-45.1217
-44.8097
-44.4877
-44.1551
-43.811
-43.4538
-43.0821
-42.6942
-42.289
-41.8657
-41.4247
-40.9666
-40.4931
-40.0063
-39.5089
-39.0035
-38.4932
-37.981
-37.4699
-36.963
-36.4633
-35.9739
-35.4977
-35.0373
-34.5951
-34.1731
-33.773
-33.3961
-33.043
-32.7143
-32.4102
-32.1302
-31.8739
-31.6404
-31.4287
-31.2379
-31.0667
-30.9141
-30.779
-30.6604
-30.5572
-30.4686
-30.3936
-30.3314
-30.2816
-30.2441
-30.2191
-30.2072
-30.2091
-30.2259
-30.2588
-30.3087
-30.3764
-30.4627
-30.5679
-30.6922
-30.8352
-30.9967
-31.1757
-31.3715
-31.5829
-31.8088
-32.0479
-32.2991
-32.5614
-32.8338
-33.1156
-33.4058
-33.7036
-34.0083
-34.3189
-34.635
-34.9558
-35.2811
-35.6104
-35.9435
-36.2802
-36.62
-36.9627
-37.308
-37.6555
-38.0049
-38.356
-38.7085
-39.0619
-39.4156
-39.7686
-40.1194
-40.4663
-40.8074
-45.1518
-44.8397
-44.5191
-44.1892
-43.8488
-43.4959
-43.1282
-42.7434
-42.3397
-41.9161
-41.4726
-41.0102
-40.5308
-40.037
-39.5317
-39.018
-38.4992
-37.9782
-37.4584
-36.9428
-36.4346
-35.937
-35.4532
-34.9861
-34.5382
-34.1116
-33.708
-33.3286
-32.9742
-32.6453
-32.3418
-32.0634
-31.8093
-31.5785
-31.3698
-31.182
-31.0139
-30.8644
-30.7323
-30.6165
-30.5161
-30.4299
-30.3568
-30.2959
-30.2465
-30.2084
-30.1818
-30.1676
-30.1667
-30.1806
-30.2107
-30.2582
-30.3242
-30.4094
-30.5143
-30.639
-30.7833
-30.9467
-31.1283
-31.3271
-31.5417
-31.7708
-32.013
-32.2671
-32.5321
-32.8071
-33.0912
-33.3838
-33.6839
-33.9906
-34.3031
-34.6207
-34.9427
-35.2689
-35.5991
-35.933
-36.2705
-36.6112
-36.9549
-37.301
-37.6493
-37.9995
-38.3516
-38.7055
-39.0609
-39.4175
-39.7744
-40.13
-40.4826
-40.8298
-45.1946
-44.8821
-44.5637
-44.2385
-43.9048
-43.5594
-43.1989
-42.8198
-42.4192
-41.9953
-41.548
-41.0786
-40.5895
-40.0843
-39.5667
-39.0402
-38.5083
-37.9742
-37.4411
-36.9121
-36.3908
-35.8806
-35.3851
-34.9077
-34.451
-34.0173
-33.6085
-33.2255
-32.8692
-32.54
-32.2377
-31.9619
-31.7115
-31.4851
-31.2812
-31.0983
-30.935
-30.79
-30.6623
-30.551
-30.455
-30.3727
-30.3029
-30.2442
-30.1955
-30.1564
-30.1272
-30.109
-30.1034
-30.1124
-30.1378
-30.1814
-30.2445
-30.328
-30.4324
-30.5578
-30.7041
-30.8706
-31.0564
-31.2601
-31.4799
-31.7141
-31.9611
-32.2196
-32.4885
-32.7671
-33.0548
-33.3509
-33.6545
-33.9645
-34.2799
-34.5998
-34.9235
-35.251
-35.5821
-35.9171
-36.2558
-36.598
-36.9431
-37.2906
-37.64
-37.9911
-38.3442
-38.6997
-39.0579
-39.4187
-39.7814
-40.1446
-40.5061
-40.8631
-45.2468
-44.9332
-44.618
-44.3003
-43.9774
-43.6448
-43.2967
-42.9274
-42.5323
-42.1084
-41.6554
-41.1752
-40.6718
-40.1499
-39.6146
-39.0703
-38.5208
-37.9691
-37.418
-36.8708
-36.3312
-35.8033
-35.2915
-34.7996
-34.3309
-33.8878
-33.4719
-33.0843
-32.7256
-32.3962
-32.096
-31.8242
-31.5794
-31.3598
-31.1629
-30.9869
-30.8299
-30.691
-30.5693
-30.4641
-30.3743
-30.2981
-30.2336
-30.1785
-30.131
-30.0905
-30.0572
-30.0327
-30.0196
-30.0208
-30.0391
-30.0769
-30.1358
-30.2168
-30.3204
-30.4468
-30.5959
-30.767
-30.959
-31.1699
-31.3975
-31.6392
-31.8929
-32.1571
-32.4309
-32.7141
-33.0063
-33.3072
-33.6158
-33.9306
-34.2502
-34.5731
-34.8989
-35.2275
-35.5595
-35.8956
-36.2359
-36.5803
-36.9277
-37.2771
-37.6277
-37.9795
-38.333
-38.6896
-39.0506
-39.4165
-39.7872
-40.161
-40.5354
-40.9067
-45.303
-44.9867
-44.6758
-44.3696
-44.0642
-43.7524
-43.425
-43.0724
-42.6868
-42.2635
-41.802
-41.3056
-40.7807
-40.2349
-39.6756
-39.1083
-38.5367
-37.9632
-37.3897
-36.819
-36.2551
-35.7033
-35.1693
-34.6583
-34.1743
-33.7194
-33.2951
-32.9019
-32.5403
-32.2109
-31.9137
-31.648
-31.4118
-31.202
-31.0152
-30.8483
-30.6994
-30.5677
-30.453
-30.3555
-30.2743
-30.2072
-30.1511
-30.1021
-30.0572
-30.0146
-29.9749
-29.9405
-29.9156
-29.9049
-29.9127
-29.9423
-29.9956
-30.0734
-30.176
-30.3036
-30.4563
-30.6337
-30.8344
-31.056
-31.2948
-31.5471
-31.8098
-32.0809
-32.3601
-32.6479
-32.9453
-33.2524
-33.568
-33.8899
-34.2154
-34.5424
-34.87
-35.1989
-35.5308
-35.8676
-36.2101
-36.5578
-36.9091
-37.2616
-37.6136
-37.9649
-38.3171
-38.6729
-39.0356
-39.4071
-39.788
-40.1763
-40.5685
-40.9599
-45.355
-45.0326
-44.7268
-44.4379
-44.1602
-43.8825
-43.5895
-43.2651
-42.8958
-42.4739
-41.999
-41.4772
-40.9199
-40.3398
-39.7482
-39.1526
-38.5557
-37.9576
-37.3577
-36.7575
-36.1618
-35.578
-35.0144
-34.4788
-33.9758
-33.5076
-33.0739
-32.6743
-32.3091
-31.9794
-31.6865
-31.4298
-31.2064
-31.0115
-30.8391
-30.6844
-30.5447
-30.4202
-30.3126
-30.2239
-30.1544
-30.1011
-30.0587
-30.0204
-29.9803
-29.9351
-29.8852
-29.8351
-29.7916
-29.7627
-29.7554
-29.774
-29.8205
-29.8946
-29.9958
-30.1245
-30.2813
-30.4669
-30.6802
-30.9174
-31.1729
-31.4403
-31.7146
-31.9932
-32.2768
-32.5681
-32.8705
-33.1854
-33.5112
-33.8439
-34.1784
-34.5106
-34.8392
-35.1659
-35.4951
-35.8311
-36.1764
-36.5301
-36.8885
-37.2464
-37.6
-37.9487
-38.2953
-38.646
-39.0072
-39.3839
-39.7774
-40.1854
-40.6024
-41.0217
-45.3904
-45.0546
-44.7535
-44.4899
-44.2564
-44.0349
-43.7994
-43.5223
-43.1806
-42.761
-42.2635
-41.7003
-41.092
-40.4613
-39.8269
-39.1988
-38.5768
-37.9548
-37.3262
-36.6899
-36.0517
-35.4237
-34.8198
-34.2523
-33.7277
-33.2462
-32.804
-32.3976
-32.027
-31.6956
-31.4075
-31.1639
-30.9607
-30.7889
-30.6379
-30.4991
-30.3687
-30.2487
-30.1453
-30.0653
-30.0114
-29.9798
-29.9608
-29.9417
-29.9112
-29.8626
-29.7965
-29.7204
-29.647
-29.59
-29.5609
-29.5661
-29.6058
-29.6769
-29.7766
-29.905
-30.0652
-30.2607
-30.4916
-30.7527
-31.0339
-31.3239
-31.6133
-31.8984
-32.1823
-32.4725
-32.7777
-33.1025
-33.4444
-33.7953
-34.1446
-34.4841
-34.8108
-35.1293
-35.4492
-35.7809
-36.1303
-36.4956
-36.8681
-37.237
-37.5934
-37.935
-38.2675
-38.6033
-38.9561
-39.3361
-39.7457
-40.1807
-40.6326
-41.091
-45.3905
-45.0266
-44.7263
-44.4986
-44.3355
-44.2073
-44.0693
-43.8728
-43.5775
-43.1603
-42.6227
-41.9886
-41.2965
-40.5883
-39.8969
-39.2363
-38.5983
-37.9616
-37.3063
-36.6251
-35.9275
-35.2348
-34.5732
-33.9644
-33.418
-32.9286
-32.4828
-32.0697
-31.6889
-31.3496
-31.0647
-30.8404
-30.6701
-30.5366
-30.4196
-30.3023
-30.1783
-30.0536
-29.9447
-29.8694
-29.8367
-29.8409
-29.8634
-29.88
-29.8684
-29.8158
-29.7224
-29.6025
-29.479
-29.3773
-29.3176
-29.3088
-29.3462
-29.4185
-29.5164
-29.64
-29.7985
-30.0035
-30.2599
-30.5592
-30.8827
-31.2082
-31.5182
-31.8058
-32.0786
-32.3553
-32.6569
-32.9948
-33.3647
-33.7488
-34.1251
-34.4756
-34.7942
-35.0904
-35.3861
-35.7051
-36.0613
-36.4501
-36.8529
-37.2452
-37.6077
-37.9339
-38.2347
-38.5355
-38.8656
-39.245
-39.6769
-40.1513
-40.653
-41.1664
-45.328
-44.907
-44.5945
-44.4145
-44.3645
-44.3941
-44.4233
-44.3659
-44.1497
-43.7334
-43.121
-42.3605
-41.5245
-40.6913
-39.9226
-39.2416
-38.6181
-37.9955
-37.3236
-36.5845
-35.7963
-35.0013
-34.2506
-33.587
-33.0266
-32.5485
-32.1146
-31.6959
-31.2911
-30.9258
-30.6351
-30.4396
-30.3267
-30.2612
-30.2019
-30.1157
-29.989
-29.8363
-29.6963
-29.6123
-29.6094
-29.6761
-29.775
-29.859
-29.8854
-29.8278
-29.687
-29.49
-29.28
-29.1043
-29.0013
-28.985
-29.0369
-29.1234
-29.2194
-29.3249
-29.465
-29.6727
-29.9664
-30.3309
-30.7286
-31.1152
-31.4553
-31.7345
-31.9692
-32.2025
-32.4836
-32.8413
-33.2642
-33.7137
-34.1427
-34.5129
-34.8097
-35.0521
-35.2891
-35.5757
-35.9448
-36.3845
-36.8523
-37.2963
-37.6741
-37.969
-38.2014
-38.4254
-38.7037
-39.0779
-39.5464
-40.0823
-40.6559
-41.2466
-45.1624
-44.6313
-44.2719
-44.1435
-44.2789
-44.5816
-44.9022
-45.0878
-45.0104
-44.5888
-43.8327
-42.8411
-41.7487
-40.7014
-39.8223
-39.1642
-38.6369
-38.1003
-37.4382
-36.6146
-35.6751
-34.7043
-33.8031
-33.0609
-32.5172
-32.105
-31.7247
-31.3026
-30.8366
-30.3947
-30.0688
-29.9202
-29.9152
-29.9771
-30.0233
-29.9877
-29.8374
-29.6012
-29.3674
-29.2388
-29.2821
-29.4651
-29.7084
-29.9213
-30.0235
-29.9603
-29.7326
-29.3964
-29.0317
-28.7272
-28.5601
-28.5635
-28.6778
-28.8148
-28.9089
-28.9602
-29.0341
-29.2184
-29.5711
-30.0551
-30.5905
-31.0893
-31.4803
-31.7273
-31.8617
-31.981
-32.2
-32.5936
-33.1255
-33.7082
-34.2446
-34.6561
-34.9031
-35.0216
-35.1204
-35.3275
-35.7266
-36.2782
-36.8858
-37.4422
-37.8599
-38.0935
-38.1801
-38.2368
-38.4034
-38.7746
-39.3185
-39.9587
-40.6341
-41.3271
-44.8302
-44.1083
-43.6164
-43.4924
-43.9525
-44.7433
-45.5757
-46.1884
-46.3669
-45.926
-44.8839
-43.4669
-41.9082
-40.4695
-39.404
-38.8986
-38.6691
-38.3862
-37.7857
-36.8119
-35.5993
-34.3073
-33.1269
-32.2494
-31.8185
-31.6159
-31.3952
-30.9731
-30.3476
-29.6972
-29.2475
-29.1945
-29.4077
-29.716
-29.9631
-30.0254
-29.8099
-29.3632
-28.8874
-28.6181
-28.7542
-29.1675
-29.686
-30.1437
-30.4001
-30.33
-29.9351
-29.3445
-28.6971
-28.1525
-27.8738
-27.9826
-28.2865
-28.5682
-28.6604
-28.5635
-28.4444
-28.522
-28.9867
-29.7056
-30.5051
-31.2188
-31.7129
-31.8821
-31.7763
-31.616
-31.6649
-32.1469
-32.9137
-33.7691
-34.5263
-35.036
-35.1816
-35.0194
-34.7954
-34.8024
-35.2887
-36.091
-36.9926
-37.7877
-38.3103
-38.4293
-38.2013
-37.8897
-37.8081
-38.2223
-38.9514
-39.7842
-40.5867
-41.3862
-44.1949
-43.2539
-42.4312
-42
-43.1498
-44.8452
-46.5656
-47.9142
-48.6157
-48.1288
-46.4754
-44.2967
-41.8954
-39.7003
-38.1792
-38.2361
-38.7786
-39.1296
-38.6712
-37.3535
-35.6381
-33.7499
-32.015
-30.7952
-30.7915
-31.1534
-31.356
-30.9371
-29.8948
-28.7111
-27.8554
-28.0861
-28.7637
-29.5436
-30.1693
-30.4639
-30.1159
-29.1676
-28.1109
-27.4143
-27.8277
-28.7193
-29.7515
-30.6564
-31.2477
-31.168
-30.4199
-29.375
-28.2153
-27.1953
-26.6301
-27.1211
-27.9278
-28.5947
-28.6847
-28.1989
-27.5721
-27.2685
-28.0367
-29.2402
-30.5437
-31.6648
-32.4137
-32.4332
-31.7695
-30.9499
-30.5062
-31.2903
-32.5742
-33.9713
-35.1644
-35.9399
-35.9033
-35.1059
-34.1377
-33.5867
-34.3956
-35.7602
-37.2524
-38.5251
-39.3416
-39.2644
-38.3424
-37.2106
-36.4984
-37.2158
-38.4346
-39.6527
-40.5431
-41.3096
-42.7368
-42.229
-40.6823
-38.2315
-41.5617
-44.911
-48.0911
-50.5719
-52.576
-52.0114
-48.8234
-45.4471
-41.5858
-37.9608
-34.6825
-36.8743
-39.1641
-41.0387
-40.7944
-38.4682
-35.9259
-32.9719
-30.1616
-27.59
-29.2383
-30.9208
-32.212
-31.7992
-29.6457
-27.2531
-24.8992
-26.3345
-27.9726
-29.5938
-30.8528
-31.8282
-31.2866
-29.1285
-26.8162
-24.6122
-26.213
-28.0692
-30.0009
-31.621
-33.0621
-32.9687
-31.3325
-29.5709
-27.5328
-25.5833
-23.8659
-25.8053
-27.7704
-29.4525
-29.5385
-28.0375
-26.2343
-24.4718
-26.4601
-28.631
-30.8451
-32.6468
-34.1648
-33.9681
-31.987
-29.7427
-27.5792
-29.714
-32.0718
-34.4673
-36.4037
-38.013
-37.7203
-35.4381
-32.8793
-30.4124
-32.7022
-35.2455
-37.828
-39.919
-41.6594
-41.3157
-38.7855
-35.9269
-33.1296
-35.487
-37.9185
-39.9925
-40.6773
-40.5138
-37.598
-42.7006
-40.2348
-26.1381
-39.9461
-45.2205
-50.6236
-53.9163
-60.2355
-59.6718
-51.4429
-47.296
-40.9361
-35.7221
-23.3091
-35.3716
-40.148
-45.9992
-45.9159
-39.8943
-36.807
-31.9875
-27.9646
-18.3086
-27.6361
-31.2522
-35.522
-35.1685
-29.7415
-25.7396
-16.4871
-24.2915
-27.2063
-30.166
-31.9455
-35.3776
-34.7855
-29.3121
-25.3659
-16.3319
-24.231
-27.311
-30.6996
-32.844
-37.0868
-36.9919
-32.4265
-30.1657
-26.723
-23.6378
-15.8361
-24.453
-28.0211
-32.6091
-32.678
-28.3117
-24.8384
-16.2743
-24.6207
-27.9598
-31.7405
-34.0376
-38.3855
-38.0727
-32.5838
-28.4195
-18.4625
-27.8168
-31.515
-35.6244
-38.1138
-42.8248
-42.4022
-36.1685
-31.4883
-20.3881
-30.6434
-34.6741
-39.1111
-41.8172
-46.978
-46.5148
-39.7011
-34.5544
-22.3377
-33.651
-37.9165
-42.332
-42.032
-35.9162
-41.1579
-41.5385
-41.9004
-42.2403
-42.5554
-42.8436
-43.1035
-43.3342
-43.5352
-43.7067
-43.8487
-43.9616
-44.0458
-44.1018
-44.1297
-41.1726
-41.5568
-41.9219
-42.2645
-42.5817
-42.8714
-43.1322
-43.3633
-43.5643
-43.7355
-43.8772
-43.9897
-44.0736
-44.1292
-44.157
-41.202
-41.5937
-41.9654
-42.3135
-42.6349
-42.9275
-43.19
-43.4217
-43.6228
-43.7934
-43.9342
-44.0459
-44.129
-44.1841
-44.2115
-41.2465
-41.6498
-42.032
-42.3887
-42.7164
-43.0132
-43.278
-43.5104
-43.711
-43.8806
-44.0199
-44.13
-44.2118
-44.2659
-44.2929
-41.3063
-41.7266
-42.1236
-42.4921
-42.8284
-43.1304
-43.3976
-43.6304
-43.8298
-43.9973
-44.1342
-44.242
-44.3218
-44.3744
-44.4006
-41.3823
-41.8261
-42.2433
-42.6272
-42.9739
-43.2818
-43.551
-43.7831
-43.98
-44.144
-44.2771
-44.3814
-44.4582
-44.5088
-44.5339
-41.4757
-41.9517
-42.3955
-42.799
-43.1577
-43.4712
-43.7411
-43.9704
-44.1625
-44.3208
-44.4484
-44.5476
-44.6203
-44.6681
-44.6918
-41.5889
-42.1089
-42.5877
-43.0148
-43.3864
-43.7037
-43.9711
-44.1942
-44.3782
-44.5279
-44.6473
-44.7396
-44.8069
-44.8509
-44.8727
-41.7262
-42.3068
-42.8312
-43.2859
-43.6688
-43.9855
-44.245
-44.4564
-44.6274
-44.7646
-44.8729
-44.9558
-45.0161
-45.0554
-45.0748
-41.8946
-42.5606
-43.144
-43.6283
-44.017
-44.3244
-44.5667
-44.7583
-44.9099
-45.0296
-45.1231
-45.1942
-45.2457
-45.2791
-45.2956
-42.1051
-42.8966
-43.5557
-44.0657
-44.4464
-44.7282
-44.9391
-45.0997
-45.2237
-45.3202
-45.3949
-45.4516
-45.4926
-45.5192
-45.5324
-42.3728
-43.3645
-44.1156
-44.6313
-44.9739
-45.203
-45.3619
-45.4774
-45.5645
-45.6318
-45.6841
-45.7241
-45.7531
-45.7722
-45.7816
-42.7187
-44.0721
-44.9102
-45.3683
-45.6128
-45.7472
-45.8281
-45.8832
-45.9247
-45.958
-45.9851
-46.0067
-46.0231
-46.0341
-46.0396
-43.2303
-45.2943
-46.0861
-46.3194
-46.3597
-46.3441
-46.3202
-46.3024
-46.2928
-46.2897
-46.2908
-46.294
-46.2977
-46.3007
-46.3024
-44.6491
-47.7868
-47.8195
-47.4637
-47.1608
-46.9481
-46.806
-46.7134
-46.6541
-46.6167
-46.5938
-46.5801
-46.5722
-46.5681
-46.5663
-50.7534
-50.7611
-50.777
-50.8027
-50.8404
-50.8938
-50.9688
-51.0747
-51.2269
-51.453
-51.8078
-52.4168
-53.6295
-56.6562
-66.5971
-50.9588
-50.9693
-50.991
-51.0256
-51.076
-51.1469
-51.2452
-51.3823
-51.5771
-51.8628
-52.3018
-53.0232
-54.3148
-56.8411
-61.9435
-51.1568
-51.1695
-51.1958
-51.2374
-51.2975
-51.3807
-51.4944
-51.6498
-51.8643
-52.1659
-52.5995
-53.2333
-54.1426
-55.2369
-55.2861
-51.3458
-51.3602
-51.3897
-51.4362
-51.5026
-51.5933
-51.7147
-51.8762
-52.091
-52.3773
-52.7578
-53.252
-53.842
-54.3583
-54.2134
-51.5247
-51.5401
-51.5717
-51.6211
-51.6908
-51.7845
-51.9071
-52.0656
-52.2679
-52.5231
-52.8369
-53.204
-53.5923
-53.9387
-54.3258
-51.6927
-51.7087
-51.7413
-51.7918
-51.8622
-51.9553
-52.0747
-52.2244
-52.4082
-52.6279
-52.8786
-53.1412
-53.3717
-53.4906
-53.4252
-51.8494
-51.8655
-51.8982
-51.9484
-52.0176
-52.1078
-52.2212
-52.3595
-52.5237
-52.7109
-52.9114
-53.1008
-53.2286
-53.1702
-52.4811
-51.9948
-52.0107
-52.0427
-52.0916
-52.1584
-52.2442
-52.3502
-52.4768
-52.623
-52.7846
-52.9512
-53.1033
-53.2148
-53.2876
-53.6665
-52.129
-52.1444
-52.1753
-52.2222
-52.2857
-52.3664
-52.4648
-52.5805
-52.7118
-52.8546
-53.0003
-53.1339
-53.228
-53.1921
-52.5114
-52.2524
-52.2671
-52.2965
-52.341
-52.4009
-52.4763
-52.5673
-52.6733
-52.7926
-52.9224
-53.0573
-53.1919
-53.3314
-53.5441
-54.3337
-52.3654
-52.3793
-52.4071
-52.449
-52.5051
-52.5753
-52.6594
-52.7568
-52.8664
-52.9862
-53.1137
-53.2466
-53.3838
-53.495
-53.259
-52.4686
-52.4816
-52.5078
-52.547
-52.5992
-52.6644
-52.7421
-52.8319
-52.933
-53.0445
-53.1657
-53.2981
-53.4544
-53.6868
-54.3093
-52.5624
-52.5746
-52.5991
-52.6357
-52.6842
-52.7446
-52.8164
-52.8993
-52.9926
-53.0959
-53.209
-53.3331
-53.4721
-53.6073
-53.5083
-52.6475
-52.6589
-52.6817
-52.7158
-52.7608
-52.8167
-52.883
-52.9593
-53.0452
-53.1402
-53.2438
-53.3576
-53.4923
-53.6903
-54.1809
-52.7245
-52.7351
-52.7563
-52.7879
-52.8297
-52.8814
-52.9426
-53.0129
-53.0916
-53.1781
-53.2707
-53.3677
-53.4685
-53.5695
-53.6575
-52.7938
-52.8037
-52.8234
-52.8528
-52.8915
-52.9393
-52.9958
-53.0605
-53.1327
-53.2114
-53.2938
-53.3751
-53.4446
-53.4574
-53.1983
-52.856
-52.8652
-52.8835
-52.9108
-52.9467
-52.991
-53.0433
-53.103
-53.1695
-53.2416
-53.3168
-53.3906
-53.4601
-53.5338
-53.7664
-52.9116
-52.9202
-52.9372
-52.9625
-52.9959
-53.037
-53.0854
-53.1408
-53.2025
-53.2695
-53.3396
-53.4092
-53.4726
-53.4992
-53.2952
-52.9609
-52.9689
-52.9848
-53.0084
-53.0395
-53.0777
-53.1228
-53.1743
-53.2319
-53.2948
-53.3619
-53.432
-53.5105
-53.6244
-53.9537
-53.0045
-53.0119
-53.0268
-53.0488
-53.0778
-53.1134
-53.1555
-53.2036
-53.2576
-53.317
-53.3809
-53.4489
-53.524
-53.5996
-53.5762
-53.0425
-53.0495
-53.0634
-53.084
-53.1112
-53.1445
-53.1839
-53.229
-53.2797
-53.3356
-53.396
-53.461
-53.5369
-53.6432
-53.8801
-53.0755
-53.082
-53.0951
-53.1144
-53.1399
-53.1713
-53.2082
-53.2506
-53.2982
-53.3506
-53.4068
-53.4656
-53.5286
-53.5954
-53.6582
-53.1035
-53.1097
-53.122
-53.1403
-53.1643
-53.1939
-53.2287
-53.2687
-53.3135
-53.3627
-53.4147
-53.4672
-53.5177
-53.55
-53.4836
-53.127
-53.1328
-53.1445
-53.1618
-53.1846
-53.2126
-53.2456
-53.2834
-53.3259
-53.3723
-53.4212
-53.4701
-53.5194
-53.5725
-53.6804
-53.146
-53.1516
-53.1627
-53.1792
-53.2009
-53.2276
-53.259
-53.2951
-53.3356
-53.3799
-53.4264
-53.4727
-53.5185
-53.5564
-53.5425
-53.1609
-53.1662
-53.1769
-53.1926
-53.2134
-53.239
-53.2691
-53.3038
-53.3427
-53.3854
-53.4304
-53.4758
-53.523
-53.5758
-53.6663
-53.1717
-53.1768
-53.1871
-53.2023
-53.2223
-53.2469
-53.2761
-53.3096
-53.3474
-53.3889
-53.433
-53.4775
-53.5236
-53.5683
-53.59
-53.1786
-53.1836
-53.1935
-53.2082
-53.2276
-53.2515
-53.2798
-53.3125
-53.3495
-53.3903
-53.4338
-53.4781
-53.5251
-53.5762
-53.6423
-53.1817
-53.1865
-53.1962
-53.2105
-53.2294
-53.2528
-53.2805
-53.3126
-53.349
-53.3895
-53.4327
-53.477
-53.5236
-53.5732
-53.6356
-53.181
-53.1858
-53.1952
-53.2093
-53.2278
-53.2507
-53.278
-53.3097
-53.3458
-53.3862
-53.4296
-53.4741
-53.5199
-53.5608
-53.5673
-53.1767
-53.1814
-53.1907
-53.2045
-53.2228
-53.2454
-53.2724
-53.3039
-53.3399
-53.3804
-53.4243
-53.4702
-53.5197
-53.5715
-53.6176
-53.1688
-53.1734
-53.1826
-53.1963
-53.2144
-53.2368
-53.2636
-53.2949
-53.3309
-53.3716
-53.4162
-53.4638
-53.5179
-53.5853
-53.7048
-53.1572
-53.1618
-53.171
-53.1846
-53.2026
-53.2249
-53.2516
-53.2828
-53.3188
-53.3596
-53.4046
-53.4528
-53.5069
-53.5624
-53.567
-53.1421
-53.1467
-53.1558
-53.1694
-53.1874
-53.2097
-53.2363
-53.2675
-53.3035
-53.3442
-53.3891
-53.4376
-53.495
-53.5741
-53.75
-53.1234
-53.128
-53.1372
-53.1508
-53.1688
-53.1911
-53.2178
-53.249
-53.2849
-53.3254
-53.3696
-53.4163
-53.4681
-53.5179
-53.4806
-53.1012
-53.1058
-53.115
-53.1286
-53.1467
-53.1692
-53.1961
-53.2274
-53.2633
-53.3036
-53.3468
-53.3914
-53.4426
-53.5212
-53.77
-53.0753
-53.0799
-53.0892
-53.103
-53.1213
-53.144
-53.1711
-53.2027
-53.2389
-53.2791
-53.3213
-53.362
-53.3981
-53.4057
-53.2321
-53.0458
-53.0505
-53.0598
-53.0738
-53.0923
-53.1153
-53.1429
-53.1751
-53.2118
-53.2526
-53.2952
-53.3357
-53.3733
-53.4154
-53.5842
-53.0126
-53.0173
-53.0268
-53.041
-53.0598
-53.0833
-53.1114
-53.1443
-53.1821
-53.2244
-53.269
-53.3114
-53.3452
-53.3363
-53.1183
-52.9756
-52.9804
-52.9901
-53.0045
-53.0237
-53.0476
-53.0764
-53.1102
-53.1494
-53.1939
-53.2425
-53.2931
-53.347
-53.4015
-53.4471
-52.9348
-52.9398
-52.9496
-52.9643
-52.9839
-53.0083
-53.0378
-53.0725
-53.1132
-53.1601
-53.213
-53.2724
-53.3482
-53.472
-53.8133
-52.8902
-52.8952
-52.9053
-52.9203
-52.9402
-52.9652
-52.9953
-53.0309
-53.0728
-53.1214
-53.1771
-53.2403
-53.3162
-53.3908
-53.2944
-52.8416
-52.8467
-52.857
-52.8723
-52.8926
-52.9181
-52.9488
-52.9852
-53.0278
-53.0774
-53.1341
-53.1994
-53.2852
-53.4275
-53.8419
-52.789
-52.7942
-52.8047
-52.8203
-52.8411
-52.867
-52.8983
-52.9353
-52.9783
-53.0277
-53.0832
-53.1443
-53.2148
-53.2744
-53.0985
-52.7323
-52.7377
-52.7483
-52.7642
-52.7854
-52.8119
-52.8438
-52.8812
-52.9244
-52.9733
-53.0265
-53.0828
-53.152
-53.284
-53.8233
-52.6714
-52.6769
-52.6878
-52.704
-52.7257
-52.7527
-52.7852
-52.8232
-52.8669
-52.9154
-52.9658
-53.0122
-53.0455
-53.01
-52.5508
-52.6063
-52.6119
-52.623
-52.6396
-52.6617
-52.6894
-52.7226
-52.7616
-52.8062
-52.8554
-52.9059
-52.9509
-52.9867
-53.0294
-53.3432
-52.5368
-52.5425
-52.5538
-52.5708
-52.5934
-52.6218
-52.6559
-52.6961
-52.7424
-52.794
-52.8478
-52.8959
-52.9231
-52.8595
-52.3636
-52.4629
-52.4687
-52.4803
-52.4976
-52.5207
-52.5498
-52.5849
-52.6265
-52.6751
-52.7306
-52.7916
-52.8554
-52.9227
-52.989
-53.0418
-52.3845
-52.3904
-52.4022
-52.4198
-52.4434
-52.4731
-52.5092
-52.5523
-52.6031
-52.6627
-52.7315
-52.8124
-52.923
-53.1269
-53.7629
-52.3015
-52.3075
-52.3194
-52.3374
-52.3615
-52.3917
-52.4286
-52.4728
-52.5253
-52.5876
-52.6611
-52.7487
-52.8584
-52.964
-52.7421
-52.2138
-52.2199
-52.232
-52.2502
-52.2746
-52.3054
-52.3428
-52.3876
-52.4409
-52.5042
-52.5789
-52.6697
-52.7968
-53.0274
-53.7634
-52.1214
-52.1275
-52.1398
-52.1583
-52.1829
-52.2139
-52.2517
-52.2967
-52.3498
-52.412
-52.4835
-52.5656
-52.6632
-52.739
-52.3827
-52.0242
-52.0304
-52.0428
-52.0614
-52.0862
-52.1175
-52.1554
-52.2003
-52.2527
-52.3126
-52.3787
-52.4507
-52.5447
-52.7498
-53.6805
-51.9223
-51.9285
-51.9409
-51.9596
-51.9846
-52.016
-52.0541
-52.0989
-52.1506
-52.2082
-52.2677
-52.3205
-52.3491
-52.2558
-51.4153
-51.8154
-51.8217
-51.8342
-51.8529
-51.878
-51.9096
-51.9479
-51.9929
-52.0447
-52.1018
-52.1592
-52.2072
-52.238
-52.2798
-52.7888
-51.7037
-51.71
-51.7225
-51.7413
-51.7664
-51.7982
-51.8367
-51.8824
-51.9353
-51.9945
-52.0551
-52.1058
-52.1194
-51.9784
-51.1062
-51.5872
-51.5934
-51.6059
-51.6246
-51.6498
-51.6816
-51.7205
-51.767
-51.8219
-51.8854
-51.9558
-52.03
-52.1082
-52.1836
-52.2409
-51.4658
-51.4719
-51.4843
-51.5029
-51.528
-51.5597
-51.5988
-51.646
-51.7027
-51.7707
-51.8517
-51.9516
-52.0989
-52.4005
-53.4223
-51.3395
-51.3456
-51.3578
-51.3762
-51.401
-51.4324
-51.4713
-51.5185
-51.576
-51.6462
-51.7323
-51.8404
-51.9824
-52.1161
-51.7152
-51.2085
-51.2145
-51.2265
-51.2445
-51.2687
-51.2996
-51.3377
-51.3842
-51.4407
-51.5099
-51.5953
-51.7056
-51.8718
-52.2021
-53.3413
-51.0729
-51.0787
-51.0903
-51.1078
-51.1314
-51.1614
-51.1982
-51.2429
-51.2968
-51.3616
-51.4389
-51.532
-51.6473
-51.7253
-51.1157
-50.9326
-50.9382
-50.9495
-50.9664
-50.9891
-51.0179
-51.0532
-51.0955
-51.1456
-51.2038
-51.2692
-51.3429
-51.4488
-51.7249
-53.1235
-50.7879
-50.7933
-50.8041
-50.8203
-50.8421
-50.8696
-50.9031
-50.9429
-50.989
-51.0403
-51.0916
-51.1314
-51.132
-50.944
-49.6079
-50.6389
-50.6441
-50.6543
-50.6698
-50.6905
-50.7166
-50.7484
-50.786
-50.8292
-50.8759
-50.9197
-50.9472
-50.9462
-50.9595
-51.673
-50.4858
-50.4907
-50.5004
-50.515
-50.5346
-50.5593
-50.5895
-50.6255
-50.6671
-50.7129
-50.7568
-50.7828
-50.7504
-50.4877
-49.1472
-50.3288
-50.3334
-50.3425
-50.3562
-50.3746
-50.3979
-50.4265
-50.4611
-50.5024
-50.5506
-50.604
-50.6589
-50.7146
-50.7633
-50.7912
-50.1681
-50.1723
-50.1808
-50.1935
-50.2106
-50.2323
-50.2592
-50.2922
-50.333
-50.3839
-50.4479
-50.5344
-50.6837
-51.0523
-52.4617
-50.0038
-50.0077
-50.0155
-50.0272
-50.0428
-50.0627
-50.0875
-50.1182
-50.157
-50.2072
-50.2739
-50.3663
-50.5005
-50.6174
-49.976
-49.8363
-49.8398
-49.8469
-49.8575
-49.8716
-49.8894
-49.9114
-49.9387
-49.9732
-50.0184
-50.0796
-50.1693
-50.3293
-50.7081
-52.1943
-49.6657
-49.6689
-49.6753
-49.6848
-49.6972
-49.7127
-49.7315
-49.7542
-49.7823
-49.8178
-49.8632
-49.9235
-50.0062
-50.0286
-49.1097
-49.4924
-49.4953
-49.501
-49.5094
-49.5202
-49.5333
-49.5487
-49.5663
-49.5866
-49.6094
-49.634
-49.6623
-49.7249
-50.0017
-51.7363
-49.3164
-49.319
-49.3242
-49.3316
-49.341
-49.352
-49.3641
-49.3768
-49.3893
-49.3991
-49.3999
-49.3772
-49.295
-48.9612
-47.14
-49.138
-49.1405
-49.1452
-49.1519
-49.1602
-49.1694
-49.1789
-49.1876
-49.194
-49.1944
-49.1797
-49.1334
-49.0399
-48.9526
-49.721
-48.9574
-48.9598
-48.9643
-48.9706
-48.9781
-48.9862
-48.994
-49.0003
-49.0033
-48.9993
-48.9791
-48.9225
-48.7803
-48.3488
-46.6185
-48.7746
-48.777
-48.7815
-48.7877
-48.7951
-48.8028
-48.81
-48.8154
-48.8177
-48.8146
-48.8013
-48.7712
-48.7216
-48.6457
-48.5462
-48.5896
-48.5921
-48.5969
-48.6035
-48.6113
-48.6194
-48.627
-48.6329
-48.6362
-48.6362
-48.6329
-48.6334
-48.6813
-48.9578
-50.4121
-48.4023
-48.405
-48.4104
-48.4178
-48.4267
-48.4361
-48.445
-48.4523
-48.4572
-48.4593
-48.4594
-48.4628
-48.4821
-48.451
-47.5652
-48.2124
-48.2156
-48.2218
-48.2305
-48.2411
-48.2526
-48.2639
-48.2736
-48.2803
-48.283
-48.2812
-48.2812
-48.3181
-48.5365
-49.8404
-48.0198
-48.0236
-48.0309
-48.0413
-48.0543
-48.0689
-48.0838
-48.0972
-48.1066
-48.1089
-48.0995
-48.0739
-48.028
-47.8673
-46.7264
-47.8241
-47.8285
-47.8371
-47.8498
-47.8659
-47.8846
-47.9047
-47.9237
-47.9382
-47.9423
-47.9265
-47.8807
-47.8178
-47.8775
-49.1293
-47.6247
-47.6298
-47.64
-47.6552
-47.6751
-47.699
-47.726
-47.7535
-47.7772
-47.7887
-47.7719
-47.6994
-47.5225
-47.0588
-45.2712
-47.4212
-47.4271
-47.4389
-47.4567
-47.4808
-47.511
-47.5467
-47.5862
-47.6251
-47.654
-47.6535
-47.5908
-47.4263
-47.1584
-47.3164
-47.2131
-47.2196
-47.2329
-47.2534
-47.2818
-47.3187
-47.3647
-47.4195
-47.4802
-47.5388
-47.5759
-47.5529
-47.402
-46.9611
-45.6516
-46.9999
-47.0069
-47.0213
-47.044
-47.0762
-47.1197
-47.1765
-47.2487
-47.337
-47.4379
-47.5377
-47.604
-47.579
-47.3658
-46.9114
-46.7813
-46.7885
-46.8034
-46.8274
-46.8622
-46.911
-46.9775
-47.067
-47.1853
-47.337
-47.5204
-47.7183
-47.8868
-47.937
-47.8629
-46.5572
-46.5641
-46.5787
-46.6025
-46.6381
-46.6895
-46.7625
-46.8655
-47.0106
-47.2133
-47.4906
-47.8532
-48.2769
-48.5935
-48.3474
-46.3277
-46.3339
-46.3471
-46.369
-46.4026
-46.4526
-46.5264
-46.635
-46.7961
-47.0369
-47.3993
-47.9456
-48.7413
-49.6399
-49.0904
-46.0934
-46.0983
-46.1088
-46.1267
-46.1551
-46.1989
-46.2658
-46.3683
-46.5265
-46.7752
-47.178
-47.8649
-49.1343
-51.6907
-57.1837
-45.8553
-45.8582
-45.8647
-45.8765
-45.8964
-45.9287
-45.9805
-46.0629
-46.1941
-46.4058
-46.7571
-47.3797
-48.6337
-51.7011
-61.3736
-62.7659
-52.9166
-49.7646
-48.4642
-47.8104
-47.4361
-47.206
-47.0596
-46.9647
-46.9028
-46.8624
-46.8362
-46.8198
-46.8103
-46.8059
-58.8754
-52.9283
-50.2474
-48.9247
-48.2049
-47.7787
-47.5117
-47.3386
-47.2242
-47.1476
-47.0961
-47.0618
-47.0397
-47.0264
-47.0202
-49.8017
-50.6705
-49.7874
-48.9664
-48.3937
-48.01
-47.7521
-47.5771
-47.4572
-47.3746
-47.3175
-47.2785
-47.2528
-47.2371
-47.2297
-49.4508
-49.6282
-49.2847
-48.8355
-48.4494
-48.1531
-47.9349
-47.7774
-47.6643
-47.5834
-47.5258
-47.4855
-47.4583
-47.4415
-47.4335
-48.9833
-48.9466
-48.8558
-48.6605
-48.441
-48.2409
-48.0759
-47.9469
-47.8489
-47.7756
-47.7216
-47.6828
-47.6561
-47.6393
-47.6312
-47.7334
-48.3015
-48.4999
-48.502
-48.417
-48.3035
-48.1919
-48.0951
-48.0162
-47.9541
-47.9065
-47.8712
-47.8463
-47.8305
-47.8228
-46.9101
-47.912
-48.2807
-48.4039
-48.411
-48.3638
-48.2977
-48.2311
-48.1717
-48.122
-48.0823
-48.0518
-48.0298
-48.0155
-48.0085
-47.9204
-47.961
-48.2323
-48.3861
-48.4407
-48.4363
-48.4039
-48.3622
-48.3204
-48.2828
-48.2511
-48.2259
-48.2073
-48.1949
-48.1888
-46.3868
-47.8487
-48.2659
-48.4371
-48.5095
-48.5275
-48.5169
-48.4935