/*--------------------------------*- C++ -*----------------------------------*\
| =========                 |                                                 |
| \\      /  F ield         | OpenFOAM: The Open Source CFD Toolbox           |
|  \\    /   O peration     | Version:  5.x                                   |
|   \\  /    A nd           | Web:      www.OpenFOAM.org                      |
|    \\/     M anipulation  |                                                 |
\*---------------------------------------------------------------------------*/
FoamFile
{
    version     2.0;
    format      ascii;
    class       volScalarField;
    location    "2.8";
    object      gradTy;
}
// * * * * * * * * * * * * * * * * * * * * * * * * * * * * * * * * * * * * * //

dimensions      [0 -1 0 1 0 0 0];

internalField   nonuniform List<scalar> 
6300
(
32275.9
32227.7
32179.6
32131.6
32083.6
32035.8
31988.1
31940.5
31893.2
31846.1
31799.2
31752.7
31706.4
31660.4
31614.8
-0.019494
-0.0585611
-0.0978515
-0.137467
-0.177438
-0.217702
-0.258072
-0.298225
-0.337698
-0.375913
-0.412229
-0.446038
-0.476898
-0.504684
-0.52972
-0.0324036
-0.0973555
-0.162724
-0.228711
-0.2954
-0.362711
-0.430351
-0.497783
-0.564211
-0.628607
-0.689799
-0.746629
-0.798196
-0.844143
-0.884938
-0.0451641
-0.135729
-0.226975
-0.31925
-0.412737
-0.507386
-0.602831
-0.698336
-0.792743
-0.884492
-0.971716
-1.05247
-1.12509
-1.18873
-1.24383
-0.0576849
-0.173415
-0.290187
-0.408562
-0.528896
-0.651241
-0.775228
-0.899957
-1.0239
-1.14487
-1.26006
-1.36639
-1.46093
-1.5418
-1.60906
-0.0698462
-0.210059
-0.35179
-0.495904
-0.643032
-0.793436
-0.94686
-1.10234
-1.25801
-1.41097
-1.55725
-1.69204
-1.8104
-1.90844
-1.98504
-0.0814852
-0.245178
-0.410997
-0.580217
-0.753868
-0.932586
-1.11641
-1.30449
-1.49479
-1.68372
-1.86586
-2.03407
-2.18012
-2.29647
-2.37913
-0.0923982
-0.278161
-0.466789
-0.660078
-0.859611
-1.0666
-1.28165
-1.50437
-1.73289
-1.96319
-2.18836
-2.3982
-2.57949
-2.71815
-2.80392
-0.102342
-0.308267
-0.517904
-0.733671
-0.957864
-1.19252
-1.43917
-1.6984
-1.96917
-2.24771
-2.52614
-2.79081
-3.02144
-3.19268
-3.28116
-0.11104
-0.334651
-0.56287
-0.79881
-1.04562
-1.30641
-1.58406
-1.88085
-2.19761
-2.5323
-2.87762
-3.21743
-3.52271
-3.74993
-3.84884
-0.118203
-0.356415
-0.600093
-0.853053
-1.11936
-1.40338
-1.70977
-2.04327
-2.40804
-2.8062
-3.23456
-3.67852
-4.10202
-4.43543
-4.57482
-0.123558
-0.372699
-0.62801
-0.893917
-1.17534
-1.47793
-1.80832
-2.17435
-2.58504
-3.04984
-3.57583
-4.16004
-4.77134
-5.31486
-5.58661
-0.126881
-0.382799
-0.645307
-0.919232
-1.21011
-1.52462
-1.87116
-2.2607
-2.70787
-3.23224
-3.85882
-4.61441
-5.50836
-6.46591
-7.14767
-0.128044
-0.386293
-0.651162
-0.927554
-1.2212
-1.53922
-1.89095
-2.28937
-2.75345
-3.31238
-4.01276
-4.93033
-6.18161
-7.8925
-9.8597
-0.127041
-0.383149
-0.645464
-0.918579
-1.20787
-1.52004
-1.86398
-2.2523
-2.70414
-3.25099
-3.94944
-4.9124
-6.39501
-9.06249
-14.9451
31573.3
31535.8
31498.6
31461.7
31425.1
31388.7
31352.7
31316.9
31281.5
31246.5
31211.8
31177.4
31143.5
31110
31076.8
31044.1
31011.8
30980
30948.5
30917.5
30886.9
30856.7
30827
30797.6
30768.5
30739.9
30711.6
30683.6
30655.9
30628.5
30601.3
30574.4
30547.7
30521.3
30495
30468.9
30442.9
30417.1
30391.3
30365.7
30340.2
30314.8
30289.4
30264.1
30238.9
30213.6
30188.4
30163.3
30138.1
30112.9
30087.7
30062.4
30037.1
30011.8
29986.4
29960.8
29935.2
29909.4
29883.5
29857.4
29831.2
29804.8
29778.2
29751.3
29724.3
29697.1
29669.6
29641.9
29613.9
29585.7
29557.2
29528.5
29499.5
29470.2
29440.7
29410.9
29380.8
29350.4
29319.7
29288.8
29257.5
29226
29194.2
29162.1
29129.7
29097
29064
29030.7
28997.1
28963.3
-0.550917
-0.569684
-0.588829
-0.609249
-0.631702
-0.656664
-0.684218
-0.714007
-0.74526
-0.776892
-0.807657
-0.836309
-0.861749
-0.883112
-0.899794
-0.911421
-0.917783
-0.918765
-0.914308
-0.904402
-0.889108
-0.868598
-0.843178
-0.813299
-0.779529
-0.742517
-0.702954
-0.661538
-0.618954
-0.575866
-0.532903
-0.490634
-0.449543
-0.409997
-0.372236
-0.336379
-0.302457
-0.270446
-0.240305
-0.211987
-0.185416
-0.160459
-0.136875
-0.114294
-0.0922179
-0.0700659
-0.0472406
-0.0232121
0.0024085
0.0298226
0.0590317
0.0898583
0.121987
0.155012
0.188472
0.221885
0.254762
0.286638
0.317095
0.345809
0.372571
0.397302
0.420041
0.440903
0.46003
0.477546
0.493533
0.508041
0.521112
0.532818
0.543287
0.552699
0.561254
0.569136
0.57647
0.583307
0.589635
0.595414
0.600619
0.605259
0.609371
0.61298
0.616038
0.618367
0.619634
0.619356
0.616953
0.611821
0.603413
0.591307
-0.918946
-0.948813
-0.979298
-1.01213
-1.04879
-1.09027
-1.13676
-1.18764
-1.24146
-1.29617
-1.34943
-1.39894
-1.44272
-1.4793
-1.50772
-1.52745
-1.53824
-1.53998
-1.53258
-1.51598
-1.49022
-1.45556
-1.41249
-1.36179
-1.30448
-1.24171
-1.17467
-1.10456
-1.03254
-0.959735
-0.887233
-0.816029
-0.746971
-0.680693
-0.617579
-0.557785
-0.501296
-0.448026
-0.397888
-0.350827
-0.306779
-0.265586
-0.226888
-0.190061
-0.154211
-0.118257
-0.0810729
-0.0416603
0.000704506
0.0463763
0.0953253
0.147191
0.201374
0.257135
0.313664
0.370119
0.425649
0.479427
0.530702
0.578884
0.623605
0.66476
0.702472
0.737013
0.768691
0.797749
0.824314
0.848423
0.870089
0.889399
0.906566
0.921934
0.935907
0.948851
0.961
0.97242
0.983034
0.992716
1.00139
1.00907
1.01591
1.02202
1.02742
1.03186
1.03476
1.03525
1.03223
1.02457
1.01123
0.991463
-1.28846
-1.32702
-1.36636
-1.40944
-1.45892
-1.51659
-1.58295
-1.65699
-1.73631
-1.81747
-1.89653
-1.96975
-2.03401
-2.08718
-2.12808
-2.15626
-2.17167
-2.17429
-2.16402
-2.14065
-2.10409
-2.05454
-1.99268
-1.91972
-1.83721
-1.74694
-1.6507
-1.55022
-1.44714
-1.34306
-1.23958
-1.13822
-1.04028
-0.946712
-0.858024
-0.774309
-0.695379
-0.620972
-0.550917
-0.485204
-0.423908
-0.366994
-0.314084
-0.264298
-0.216231
-0.168096
-0.117994
-0.0642405
-0.00564382
0.0583268
0.127534
0.201299
0.2786
0.358263
0.439071
0.519792
0.599166
0.675921
0.748866
0.81704
0.879874
0.937271
0.989562
1.03734
1.08122
1.12163
1.15872
1.1924
1.22254
1.24914
1.27251
1.29325
1.31211
1.32978
1.34665
1.36276
1.37784
1.39153
1.40362
1.41417
1.42353
1.43213
1.44023
1.4476
1.45342
1.45624
1.45425
1.44553
1.42837
1.40151
-1.66081
-1.70406
-1.74795
-1.79747
-1.85719
-1.93033
-2.01799
-2.11867
-2.22846
-2.3417
-2.45199
-2.55337
-2.64121
-2.71268
-2.7667
-2.80343
-2.82345
-2.82713
-2.81428
-2.78431
-2.73664
-2.67122
-2.58889
-2.49139
-2.38114
-2.26079
-2.13289
-1.99968
-1.86323
-1.72559
-1.58896
-1.45557
-1.32739
-1.20582
-1.09143
-0.984077
-0.883101
-0.787816
-0.697869
-0.61341
-0.534933
-0.462855
-0.397015
-0.336307
-0.278612
-0.221044
-0.160465
-0.0940971
-0.0200472
0.062407
0.152838
0.24996
0.35206
0.457366
0.564217
0.671008
0.776047
0.877491
0.973479
1.06246
1.14354
1.2167
1.28271
1.34283
1.39828
1.44983
1.49757
1.54104
1.57963
1.61308
1.64179
1.66682
1.68959
1.7114
1.73295
1.75414
1.77421
1.79225
1.80767
1.82059
1.83185
1.84259
1.85371
1.86524
1.87604
1.88383
1.88564
1.87834
1.8592
1.82627
-2.0386
-2.08008
-2.1214
-2.17076
-2.23604
-2.32311
-2.4342
-2.56715
-2.71557
-2.87008
-3.0202
-3.15643
-3.27189
-3.3632
-3.43014
-3.47456
-3.49868
-3.50367
-3.48911
-3.45336
-3.39465
-3.31217
-3.20684
-3.08133
-2.9395
-2.78544
-2.62263
-2.45373
-2.28093
-2.10659
-1.9336
-1.76534
-1.60492
-1.45449
-1.31466
-1.18459
-1.06256
-0.94691
-0.836862
-0.73295
-0.636696
-0.549693
-0.472519
-0.40395
-0.340785
-0.278307
-0.211256
-0.135007
-0.0465496
0.0549978
0.168496
0.291437
0.420879
0.554216
0.689414
0.824707
0.958063
1.08687
1.20813
1.31919
1.41855
1.50634
1.58427
1.65496
1.72088
1.78345
1.84249
1.8966
1.94402
1.98375
2.01627
2.04354
2.06836
2.09331
2.11968
2.14701
2.17342
2.19663
2.2152
2.22932
2.24082
2.25241
2.26649
2.28383
2.3029
2.31997
2.33007
2.32811
2.30981
2.27224
-2.4267
-2.4563
-2.48324
-2.52105
-2.58349
-2.68125
-2.81891
-2.99329
-3.19384
-3.40474
-3.60837
-3.78931
-3.9373
-4.04873
-4.12595
-4.17488
-4.20139
-4.20831
-4.19438
-4.15541
-4.08681
-3.98596
-3.85377
-3.69469
-3.51542
-3.3226
-3.12105
-2.91331
-2.70079
-2.48554
-2.27137
-2.0637
-1.86799
-1.6878
-1.52374
-1.37343
-1.23276
-1.09784
-0.966925
-0.841369
-0.725041
-0.622288
-0.535539
-0.463726
-0.401882
-0.342068
-0.275206
-0.193408
-0.0918114
0.0304693
0.170646
0.323639
0.484173
0.64847
0.814552
0.981275
1.14671
1.30718
1.45755
1.59286
1.71029
1.81025
1.89635
1.97402
2.0484
2.12219
2.19459
2.26187
2.31955
2.36489
2.39838
2.42385
2.44701
2.47322
2.50508
2.54129
2.5773
2.60775
2.62921
2.64189
2.6497
2.65871
2.67464
2.7
2.73268
2.7662
2.79192
2.80145
2.78823
2.74806
-2.83442
-2.83632
-2.82942
-2.8359
-2.88007
-2.98199
-3.15073
-3.38179
-3.65722
-3.94985
-4.22922
-4.46963
-4.65536
-4.78351
-4.86247
-4.90742
-4.93229
-4.94291
-4.93564
-4.90008
-4.82533
-4.70479
-4.53932
-4.33705
-4.1107
-3.87224
-3.62824
-3.37962
-3.12443
-2.86277
-2.59959
-2.34466
-2.10848
-1.8977
-1.7128
-1.54813
-1.39444
-1.24275
-1.089
-0.93621
-0.793533
-0.671518
-0.576724
-0.508805
-0.459709
-0.415616
-0.36029
-0.279928
-0.16645
-0.0194059
0.154777
0.345428
0.542506
0.740614
0.939238
1.14017
1.34299
1.54254
1.72916
1.89279
2.02768
2.13464
2.2211
2.29833
2.37729
2.46349
2.55461
2.64151
2.71338
2.76361
2.7926
2.80803
2.82181
2.84553
2.88476
2.93637
2.98971
3.03231
3.05638
3.06197
3.05732
3.05555
3.06965
3.10609
3.16166
3.2241
3.27746
3.30791
3.30583
3.2658
-3.27934
-3.22899
-3.15637
-3.09649
-3.09357
-3.18656
-3.39293
-3.70649
-4.09593
-4.51415
-4.90626
-5.22874
-5.45638
-5.58915
-5.64802
-5.66889
-5.68368
-5.70328
-5.71758
-5.70113
-5.62973
-5.48824
-5.27776
-5.01391
-4.72329
-4.42966
-4.14186
-3.85517
-3.55715
-3.24189
-2.91566
-2.59826
-2.31206
-2.0699
-1.87233
-1.70657
-1.55278
-1.3901
-1.20915
-1.01592
-0.831661
-0.680902
-0.578521
-0.526068
-0.50959
-0.504571
-0.48063
-0.413299
-0.288555
-0.107452
0.11614
0.358944
0.600362
0.833053
1.06166
1.29742
1.54508
1.79761
2.03502
2.23528
2.38649
2.48974
2.56034
2.62136
2.69699
2.79893
2.92197
3.04404
3.13964
3.19418
3.20761
3.19584
3.18354
3.19678
3.24782
3.33019
3.4188
3.48476
3.51133
3.49795
3.46193
3.43065
3.4336
3.48571
3.58179
3.69604
3.79693
3.86212
3.87893
3.84267
-3.79436
-3.65375
-3.46494
-3.27507
-3.16897
-3.22788
-3.48085
-3.922
-4.4933
-5.11613
-5.68367
-6.12449
-6.39407
-6.5013
-6.4883
-6.43913
-6.42818
-6.47126
-6.54378
-6.58125
-6.53502
-6.37094
-6.09295
-5.72923
-5.34003
-4.97849
-4.65369
-4.34676
-4.01445
-3.63653
-3.2187
-2.80657
-2.45185
-2.17749
-1.98558
-1.8473
-1.72342
-1.56324
-1.3464
-1.08212
-0.820904
-0.619932
-0.507685
-0.490746
-0.542163
-0.619936
-0.66259
-0.628451
-0.490892
-0.255709
0.0508492
0.375519
0.671891
0.932518
1.17496
1.43872
1.74139
2.0757
2.39564
2.6497
2.81568
2.89319
2.91477
2.92471
2.98018
3.10539
3.29211
3.48613
3.62644
3.68541
3.66034
3.58586
3.50992
3.49505
3.56722
3.71646
3.88193
3.99532
4.02522
3.96791
3.86108
3.75778
3.72806
3.80328
3.97699
4.18843
4.36895
4.48707
4.52943
4.50277
-4.44048
-4.14782
-3.77489
-3.33278
-3.00646
-2.98948
-3.29748
-3.9498
-4.8162
-5.79746
-6.64334
-7.26657
-7.56533
-7.58634
-7.3805
-7.15413
-7.09467
-7.19664
-7.42028
-7.58172
-7.60984
-7.41755
-7.03147
-6.48111
-5.91684
-5.47433
-5.13969
-4.87482
-4.53734
-4.08857
-3.51351
-2.9322
-2.47592
-2.16637
-2.0216
-1.96735
-1.94638
-1.8181
-1.55209
-1.14407
-0.723612
-0.431434
-0.299846
-0.357235
-0.537064
-0.786183
-0.955496
-0.992928
-0.834269
-0.507235
-0.0410404
0.432315
0.794344
1.05762
1.25701
1.52343
1.89153
2.37386
2.85047
3.19028
3.3716
3.37649
3.28527
3.16182
3.16224
3.32255
3.651
4.0048
4.22961
4.29691
4.18348
3.97722
3.74764
3.66726
3.7749
4.07863
4.41937
4.6254
4.664
4.50849
4.25449
3.97832
3.87083
3.97842
4.31731
4.72477
5.0303
5.22055
5.27874
5.27828
-5.33196
-4.75724
-4.18411
-3.22333
-2.39791
-2.28242
-2.61755
-3.66858
-4.9729
-6.673
-7.92288
-8.87519
-9.13586
-8.99741
-8.30162
-7.6282
-7.52819
-7.74631
-8.38591
-8.77379
-9.00168
-8.74295
-8.20635
-7.25287
-6.31826
-5.81483
-5.52529
-5.50758
-5.22068
-4.72273
-3.81766
-2.87825
-2.28923
-1.91864
-1.92799
-2.04028
-2.32479
-2.27233
-1.96344
-1.22526
-0.443016
-0.0132648
0.178418
-0.0492007
-0.434107
-1.06939
-1.4405
-1.6421
-1.4226
-0.961788
-0.146029
0.646521
1.05598
1.27159
1.23935
1.45842
1.87382
2.67678
3.49875
3.95541
4.17786
3.99442
3.69833
3.21664
3.11008
3.29355
3.96933
4.70509
5.05542
5.16448
4.83612
4.39799
3.76631
3.56454
3.69609
4.38339
5.14674
5.49254
5.57835
5.18699
4.67596
3.95222
3.70018
3.81692
4.5554
5.40448
5.85441
6.14103
6.10945
6.21689
-6.71725
-5.364
-5.1512
-2.91884
-0.767055
-0.926455
-0.90675
-3.0226
-4.55971
-8.19686
-9.63092
-11.4798
-11.2811
-11.211
-9.19049
-7.27648
-7.50356
-7.68901
-9.71397
-10.1962
-11.0942
-10.4684
-9.9814
-7.99731
-6.09858
-5.84712
-5.51934
-6.5278
-6.20776
-5.94293
-4.17101
-2.31939
-1.78771
-1.12349
-1.68587
-1.86496
-3.18817
-3.09552
-2.99258
-1.36946
0.345662
0.748224
1.26093
0.485761
0.0298047
-1.73256
-2.16918
-2.89714
-2.35788
-1.92685
-0.21694
1.41308
1.59743
1.84314
0.860466
1.11137
1.29874
2.95311
4.67389
5.05864
5.5694
4.77537
4.37943
2.73211
2.6411
2.55649
4.20215
5.96127
6.22958
6.66285
5.64773
5.09837
3.16686
2.98277
2.81792
4.57954
6.47625
6.73497
7.18076
6.03875
5.40467
3.24784
2.9994
2.76101
4.63504
6.65974
6.91443
7.52056
6.74087
7.44502
-9.4873
-4.32838
-9.02626
-2.49812
4.19203
0.171665
3.87929
-3.20998
-1.12244
-12.8931
-10.7416
-17.0328
-13.2411
-16.2333
-9.92589
-3.84152
-7.53882
-4.98272
-13.2635
-11.0199
-15.3808
-11.994
-13.9121
-8.61867
-3.50669
-5.98915
-3.58898
-9.46088
-7.11512
-9.33317
-4.63887
0.140468
-1.47673
1.4383
-1.99537
-0.041809
-6.09009
-3.9332
-6.21048
-1.64574
3.02484
1.35155
4.19847
0.561485
2.37542
-4.30441
-2.47785
-5.97656
-3.13681
-4.73298
-0.172218
4.26202
2.05117
4.18423
-1.29413
0.856483
-1.38817
3.1345
7.77367
5.98115
8.84063
4.98382
6.86329
0.00726009
2.16369
-0.671362
4.27241
9.36504
7.16702
10.2477
5.78949
7.78991
0.0520123
2.37416
-0.83348
4.58204
10.1653
7.70888
11.0704
6.15998
8.32701
-0.203711
2.28505
-1.33589
4.49853
10.4647
7.4692
10.8965
5.23645
9.65574
-19.1989
10.9012
-29.0667
-2.31042
24.5746
-9.85812
24.2133
-16.6116
22.2712
-37.637
0.305446
-37.1047
-5.43168
-34.6469
-10.3397
13.6794
-16.5786
13.329
-31.9677
-2.33302
-30.8236
-5.88023
-28.2274
-8.97846
10.0215
-13.162
10.2534
-24.2273
-1.45045
-22.6772
-5.22912
11.8114
-7.6922
13.1423
-10.0626
13.304
-20.8077
1.61416
-19.2812
-2.07475
14.8388
-4.55465
16.4725
-7.21265
16.9516
-19.1262
4.8812
-18.1842
2.47118
-16.4061
0.0537303
16.6789
-3.75141
17.4848
-14.4356
6.92967
-13.8213
3.14692
20.1338
0.203457
21.782
-3.06933
21.9249
-15.697
8.87257
-15.1022
4.1268
23.2658
0.501536
24.6872
-3.37079
24.503
-17.5508
9.72684
-16.9038
4.34142
25.43
0.303376
26.8703
-3.91185
26.6526
-19.5247
10.3673
-19.0497
4.17112
27.173
-1.22586
27.3568
-10.7834
18.12
28925.7
28884.4
28842.6
28800.5
28758.1
28715.4
28672.4
28629.2
28585.7
28542.1
28498.3
28454.3
28410.3
28366.2
28322.1
0.573658
0.548738
0.518524
0.483725
0.44527
0.404159
0.361349
0.317671
0.27378
0.230138
0.187022
0.144552
0.102714
0.0613986
0.0204256
0.962162
0.920258
0.869145
0.810152
0.744971
0.675404
0.603143
0.529629
0.455973
0.382936
0.310957
0.240199
0.170606
0.101955
0.033914
1.36058
1.30097
1.22763
1.14275
1.04904
0.949324
0.846178
0.741724
0.637546
0.534679
0.433675
0.334685
0.237555
0.141902
0.0471922
1.77378
1.69526
1.59752
1.48403
1.35899
1.22656
1.09043
0.953474
0.817753
0.68452
0.554353
0.427301
0.303023
0.180904
0.060146
2.20816
2.1087
1.98308
1.8368
1.67623
1.50742
1.33541
1.16393
0.995423
0.831253
0.671882
0.517118
0.366319
0.218537
0.0726335
2.6721
2.54831
2.38928
2.20382
2.00163
1.79138
1.57976
1.37131
1.1687
0.973142
0.784764
0.602943
0.426581
0.254283
0.0844809
3.17717
3.02335
2.82203
2.58768
2.33512
2.07665
1.82082
1.57272
1.33483
1.10779
0.891044
0.683278
0.482759
0.28752
0.0954833
3.73992
3.54636
3.28823
2.99006
2.67479
2.35939
2.05408
1.76379
1.48999
1.23206
0.988282
0.756326
0.533628
0.317541
0.105409
4.3848
4.13453
3.79499
3.4101
3.01519
2.63244
2.27247
1.93836
1.62917
1.3421
1.07362
0.820062
0.577853
0.343585
0.114012
5.15083
4.81166
4.34689
3.8401
3.3439
2.88327
2.46531
2.08809
1.74621
1.43347
1.14396
0.872391
0.614093
0.364911
0.121054
6.11474
5.61258
4.9393
4.25798
3.63663
3.09164
2.61765
2.2026
1.83411
1.50156
1.1963
0.91139
0.641177
0.380888
0.126337
7.47008
6.58523
5.54037
4.61477
3.85224
3.22889
2.71115
2.27061
1.88609
1.54231
1.22822
0.935647
0.658302
0.391107
0.129736
9.73851
7.71782
6.02381
4.80859
3.92841
3.26052
2.7275
2.28264
1.8973
1.5533
1.23856
0.944626
0.665238
0.395483
0.131231
14.1167
8.52248
6.028
4.66707
3.7922
3.15737
2.65579
2.23516
1.86713
1.53498
1.22803
0.938996
0.662502
0.394331
0.130927
-0.124407
-0.375011
-0.631091
-0.896647
-1.17628
-1.47556
-1.8017
-2.16456
-2.57861
-3.06682
-3.66925
-4.46426
-5.62802
-7.62118
-11.8332
-0.120628
-0.363385
-0.610705
-0.865836
-1.13235
-1.41435
-1.71664
-2.04508
-2.40677
-2.80999
-3.26222
-3.75995
-4.24208
-4.37578
-2.53884
-0.115803
-0.348577
-0.584872
-0.827081
-1.07764
-1.33899
-1.61339
-1.90247
-2.20606
-2.51908
-2.82349
-3.06631
-3.09804
-2.49891
-0.118679
-0.110161
-0.331309
-0.554907
-0.782491
-1.01539
-1.25451
-1.49988
-1.74976
-1.99879
-2.23411
-2.42739
-2.51902
-2.39217
-1.85864
-0.834378
-0.103942
-0.312325
-0.52215
-0.734173
-0.948774
-1.16563
-1.38318
-1.5976
-1.80101
-1.97831
-2.10174
-2.12322
-1.96885
-1.55895
-0.927637
-0.0973709
-0.292324
-0.48784
-0.684028
-0.880539
-1.07622
-1.26861
-1.45304
-1.62136
-1.75991
-1.8468
-1.84926
-1.72302
-1.41285
-0.800855
-0.0906474
-0.271918
-0.453036
-0.633622
-0.812828
-0.989045
-1.15948
-1.31961
-1.46236
-1.57737
-1.65044
-1.66449
-1.6049
-1.47623
-1.36132
-0.0839358
-0.251602
-0.418575
-0.584136
-0.747145
-0.90582
-1.05747
-1.19817
-1.32258
-1.42394
-1.495
-1.53072
-1.53467
-1.52992
-1.56091
-0.0773622
-0.231752
-0.385071
-0.536387
-0.684425
-0.82742
-0.962978
-1.08799
-1.19876
-1.29153
-1.36404
-1.41886
-1.4704
-1.55868
-1.77814
-0.0710164
-0.21263
-0.352933
-0.490879
-0.625161
-0.75413
-0.875749
-0.987641
-1.08737
-1.17314
-1.2453
-1.30918
-1.38049
-1.49621
-1.74404
-0.0649571
-0.194404
-0.322408
-0.447879
-0.56954
-0.685891
-0.795212
-0.895672
-0.985614
-1.06415
-1.13223
-1.1942
-1.25965
-1.34186
-1.43096
-0.0592178
-0.177165
-0.293618
-0.407488
-0.51756
-0.622478
-0.720769
-0.810946
-0.891719
-0.962371
-1.0233
-1.07668
-1.12709
-1.18255
-1.26187
-0.0538131
-0.16095
-0.266597
-0.369697
-0.469112
-0.563611
-0.651901
-0.732689
-0.804795
-0.867283
-0.919535
-0.961066
-0.990956
-1.00653
-0.995097
-0.0487438
-0.145754
-0.241318
-0.334431
-0.424031
-0.509001
-0.588182
-0.660402
-0.724496
-0.779251
-0.823119
-0.853384
-0.864685
-0.849131
-0.819311
-0.0440012
-0.131548
-0.217718
-0.301567
-0.382117
-0.458354
-0.529235
-0.593698
-0.65063
-0.698731
-0.736063
-0.758723
-0.757
-0.7015
-0.477596
-0.0395703
-0.118282
-0.195704
-0.270959
-0.343151
-0.411368
-0.474684
-0.532164
-0.582843
-0.625643
-0.659114
-0.680853
-0.686595
-0.670695
-0.643657
-0.035432
-0.105898
-0.175169
-0.24244
-0.306899
-0.36773
-0.424123
-0.475289
-0.520475
-0.558985
-0.590234
-0.61395
-0.631142
-0.647482
-0.681286
-0.0315649
-0.0943295
-0.155998
-0.215839
-0.273119
-0.327115
-0.377128
-0.422503
-0.462686
-0.497321
-0.526508
-0.551437
-0.576174
-0.612012
-0.684995
-0.0279463
-0.0835067
-0.138071
-0.190978
-0.241571
-0.289212
-0.33329
-0.37326
-0.408692
-0.439392
-0.465664
-0.488931
-0.513395
-0.550606
-0.633891
-0.0245534
-0.0733605
-0.12127
-0.167687
-0.212028
-0.253725
-0.292243
-0.327105
-0.357925
-0.38448
-0.406824
-0.425465
-0.44167
-0.457063
-0.464149
-0.0213637
-0.0638228
-0.105479
-0.145802
-0.184273
-0.220389
-0.253674
-0.283693
-0.31006
-0.332435
-0.350465
-0.363557
-0.370435
-0.369147
-0.365403
-0.0183553
-0.0548278
-0.0905881
-0.125167
-0.158106
-0.188962
-0.217312
-0.242757
-0.264911
-0.283351
-0.297445
-0.30582
-0.30481
-0.282798
-0.19299
-0.0155073
-0.0463125
-0.076492
-0.105635
-0.13334
-0.15922
-0.182907
-0.204047
-0.222288
-0.237234
-0.248309
-0.254456
-0.253711
-0.243407
-0.226191
-0.0127997
-0.038217
-0.0630906
-0.0870645
-0.109793
-0.130945
-0.150209
-0.167288
-0.181902
-0.193758
-0.202514
-0.207733
-0.209184
-0.208677
-0.216891
-0.0102136
-0.0304845
-0.0502889
-0.0693231
-0.0872943
-0.103926
-0.118965
-0.132182
-0.143377
-0.152389
-0.159099
-0.163487
-0.165917
-0.167768
-0.169826
-0.00773113
-0.0230612
-0.0379972
-0.052284
-0.0656791
-0.0779585
-0.0889249
-0.0984157
-0.106315
-0.112571
-0.117227
-0.12048
-0.122955
-0.126582
-0.137209
-0.00533564
-0.015897
-0.0261314
-0.0358288
-0.0447927
-0.0528477
-0.0598486
-0.0656929
-0.070336
-0.0738121
-0.0762516
-0.0778848
-0.0790971
-0.0803926
-0.0796819
-0.00301165
-0.00894553
-0.0146138
-0.0198476
-0.0244921
-0.0284147
-0.0315159
-0.0337435
-0.035111
-0.0357173
-0.0357502
-0.0354464
-0.0350881
-0.0354458
-0.041025
-0.000745004
-0.00216416
-0.00337333
-0.00424058
-0.00464776
-0.00449876
-0.00373126
-0.00233263
-0.000360769
0.00203316
0.00460416
0.00709441
0.00950387
0.0132717
0.0280814
0.00147714
0.00448555
0.00765397
0.0110817
0.0148553
0.0190409
0.0236729
0.0287373
0.0341477
0.0397118
0.0450999
0.0498296
0.0532209
0.0544578
0.0553525
0.00366633
0.0110381
0.0185252
0.0261981
0.0341166
0.0423234
0.0508341
0.0596231
0.0685986
0.0775611
0.0861366
0.0936332
0.0984873
0.0960132
0.0689968
0.00583295
0.0175245
0.0292911
0.0411779
0.0532219
0.0654473
0.0778595
0.0904354
0.103106
0.115724
0.128002
0.13941
0.148894
0.154725
0.159763
0.00798633
0.0239723
0.0399968
0.056082
0.0722446
0.0884934
0.104828
0.121238
0.137698
0.154163
0.170544
0.186655
0.201897
0.214115
0.215392
0.010135
0.0304068
0.0506834
0.0709654
0.0912501
0.111531
0.131802
0.152061
0.172335
0.1927
0.213342
0.234633
0.257086
0.281211
0.31054
0.0122867
0.0368513
0.0613889
0.0858794
0.1103
0.134627
0.158839
0.182933
0.206958
0.231085
0.25575
0.281911
0.3112
0.344812
0.374613
0.0144488
0.0433276
0.0721493
0.100874
0.129457
0.157852
0.186012
0.213908
0.241562
0.269143
0.29719
0.327131
0.362394
0.411185
0.496931
0.0166281
0.0498562
0.0829994
0.115997
0.148784
0.181287
0.213423
0.245105
0.276267
0.306926
0.337388
0.368773
0.404273
0.452024
0.531324
0.0188309
0.0564565
0.0939717
0.131298
0.16835
0.205025
0.2412
0.276716
0.311368
0.344894
0.37702
0.407681
0.437717
0.471078
0.521083
0.0210631
0.0631457
0.105096
0.146821
0.188215
0.229156
0.269484
0.308978
0.347296
0.383877
0.417743
0.447142
0.468909
0.478691
0.485575
0.0233294
0.0699388
0.116398
0.162602
0.208434
0.253758
0.298398
0.342104
0.384474
0.424788
0.461641
0.492021
0.508471
0.488427
0.345534
0.025634
0.0768478
0.127898
0.178671
0.229044
0.278879
0.328009
0.376206
0.42312
0.46814
0.5101
0.546692
0.573417
0.58357
0.586214
0.0279799
0.0838821
0.13961
0.195045
0.250063
0.304535
0.358316
0.411247
0.463123
0.513652
0.562346
0.608326
0.649922
0.684034
0.703385
0.0303698
0.0910487
0.151545
0.211736
0.271499
0.330712
0.389263
0.447067
0.504101
0.56047
0.616535
0.673112
0.731694
0.794838
0.871387
0.0328054
0.0983532
0.163711
0.228753
0.293352
0.357391
0.420776
0.48347
0.545582
0.607536
0.670417
0.736596
0.810369
0.896427
0.982539
0.0352885
0.1058
0.176115
0.246102
0.315628
0.384567
0.452813
0.520323
0.587216
0.653995
0.722066
0.794898
0.88058
0.998082
1.19786
0.0378204
0.113394
0.188766
0.263797
0.338345
0.412263
0.485404
0.55765
0.628971
0.699598
0.77047
0.844375
0.928757
1.04271
1.23435
0.0404021
0.121139
0.20167
0.281853
0.361533
0.440536
0.51866
0.595662
0.671246
0.745068
0.81683
0.886674
0.956461
1.03348
1.13705
0.0430342
0.129036
0.214834
0.300284
0.385223
0.469458
0.552737
0.6347
0.714781
0.792004
0.864581
0.929109
0.979191
1.0059
1.02763
0.0457159
0.137084
0.228256
0.319092
0.409432
0.49908
0.587767
0.675085
0.760336
0.8422
0.91798
0.981672
1.01819
0.981873
0.697294
0.0484453
0.145277
0.241928
0.338269
0.434153
0.529405
0.623787
0.716944
0.808275
0.896653
0.979826
1.0532
1.10779
1.13033
1.13783
0.051219
0.153604
0.25583
0.357784
0.459344
0.560369
0.660696
0.760108
0.858296
0.954746
1.04852
1.13787
1.21968
1.28931
1.33909
0.0540321
0.162052
0.269937
0.377596
0.484933
0.591854
0.698277
0.80416
0.909555
1.01472
1.12034
1.22787
1.34008
1.46214
1.60998
0.0568789
0.170601
0.284216
0.397652
0.510838
0.623717
0.736271
0.848588
0.961006
1.07441
1.19087
1.31468
1.45371
1.61715
1.7868
0.0597531
0.179233
0.298634
0.417902
0.536983
0.655837
0.774464
0.892983
1.0118
1.13202
1.25632
1.391
1.55042
1.76794
2.13027
0.0626482
0.187929
0.313159
0.438301
0.563311
0.688144
0.812767
0.937204
1.06166
1.18682
1.31462
1.45022
1.60684
1.81823
2.17087
0.0655571
0.196666
0.327758
0.45881
0.589787
0.720627
0.85123
0.981445
1.11106
1.23981
1.36756
1.49491
1.62527
1.77052
1.95824
0.068472
0.205424
0.342397
0.479391
0.616383
0.753303
0.889994
1.02614
1.16108
1.29352
1.42082
1.5376
1.63339
1.6934
1.74881
0.0713836
0.214175
0.357033
0.499991
0.643051
0.786164
0.92917
1.07169
1.21286
1.35083
1.48142
1.59493
1.66637
1.61954
1.15983
0.0742809
0.222885
0.371613
0.520537
0.669706
0.819126
0.968714
1.1182
1.2669
1.41328
1.55393
1.68154
1.78153
1.83244
1.86251
0.077151
0.231516
0.386068
0.540928
0.696206
0.851998
1.00836
1.16528
1.32257
1.47973
1.63553
1.7874
1.93079
2.05989
2.16884
0.0799795
0.240023
0.40032
0.561043
0.722371
0.884497
1.04765
1.21212
1.37836
1.54715
1.71989
1.89922
2.09001
2.30139
2.55905
0.0827514
0.24836
0.414286
0.580753
0.748001
0.916308
1.08604
1.25775
1.4324
1.61183
1.79969
2.00314
2.23496
2.51082
2.80759
0.0854518
0.25648
0.427887
0.599935
0.772912
0.94715
1.12308
1.30137
1.48315
1.67068
1.86869
2.08741
2.34935
2.70578
3.28683
0.0880672
0.264344
0.441051
0.618486
0.796964
0.976835
1.15852
1.34258
1.52993
1.72228
1.92335
2.14171
2.39817
2.74481
3.31664
0.0905853
0.271914
0.453718
0.636323
0.820063
1.00528
1.19232
1.38153
1.57324
1.76785
1.96603
2.16961
2.38439
2.62752
2.932
0.0929952
0.279157
0.465837
0.653384
0.842152
1.03248
1.22464
1.41875
1.61456
1.81095
2.00498
2.18977
2.35095
2.46766
2.58642
0.0952872
0.286046
0.47736
0.669608
0.863172
1.05841
1.25561
1.45481
1.65548
1.85571
2.05037
2.22637
2.34842
2.30643
1.67092
0.0974524
0.292552
0.48824
0.684926
0.883038
1.08301
1.28522
1.48988
1.69672
1.90434
2.10875
2.30049
2.4598
2.55741
2.63485
0.0994838
0.298652
0.498432
0.699263
0.901626
1.10606
1.31313
1.52343
1.73743
1.9552
2.17596
2.39715
2.61404
2.82242
3.0271
0.101377
0.30433
0.507899
0.712541
0.918787
1.12728
1.33882
1.55444
1.77552
2.00401
2.24286
2.49685
2.77421
3.09002
3.48082
0.103131
0.309583
0.516626
0.724712
0.934397
1.1464
1.36168
1.58166
1.80847
2.04563
2.29926
2.58035
2.9077
3.30559
3.75536
0.104753
0.314428
0.52463
0.735778
0.948405
1.16324
1.3813
1.60414
1.83424
2.07581
2.3366
2.63174
2.99221
3.48514
4.27302
0.106259
0.318909
0.53198
0.745818
0.960888
1.17784
1.3976
1.6216
1.85204
2.09263
2.35011
2.63779
2.98473
3.45989
4.24356
0.107672
0.323099
0.538797
0.755007
0.97207
1.19048
1.41097
1.63458
1.86279
2.09775
2.34263
2.60272
2.88821
3.2204
3.62317
0.109026
0.327101
0.545259
0.763603
0.982315
1.20169
1.42218
1.64436
1.86886
2.09596
2.3246
2.55002
2.75928
2.9319
3.12763
0.110365
0.331046
0.551591
0.771942
0.992098
1.21213
1.43221
1.65253
1.87311
2.09309
2.30882
2.50854
2.65578
2.62736
1.92492
0.111737
0.335084
0.558055
0.780417
1.00196
1.22254
1.44207
1.66052
1.87778
2.09317
2.30416
2.5035
2.67425
2.79088
2.90789
0.113196
0.339381
0.564942
0.789454
1.0125
1.23367
1.45266
1.66932
1.88374
2.0963
2.30759
2.51831
2.7303
2.95413
3.23584
0.114798
0.34411
0.572553
0.79951
1.02432
1.24631
1.46488
1.67968
1.89099
2.1003
2.3114
2.53223
2.77812
3.07717
3.47859
0.116597
0.349439
0.581193
0.81105
1.03809
1.26131
1.47969
1.69245
1.89961
2.10303
2.30843
2.52874
2.789
3.1291
3.57986
0.118641
0.35552
0.591144
0.824536
1.05452
1.27967
1.4984
1.7091
1.91081
2.10439
2.2951
2.49749
2.74442
3.10415
3.71459
0.120964
0.362468
0.60264
0.840381
1.07428
1.30248
1.52265
1.73199
1.92764
2.10771
2.27363
2.43527
2.62149
2.90508
3.48444
0.123578
0.370336
0.615815
0.858884
1.09797
1.33085
1.55439
1.76436
1.95528
2.12083
2.25511
2.35595
2.43091
2.50056
2.54818
0.126468
0.379086
0.630653
0.880136
1.12596
1.36568
1.59555
1.80992
2.00051
2.15565
2.25978
2.29459
2.244
2.11131
1.99504
0.129578
0.38856
0.646925
0.903911
1.15816
1.40732
1.64742
1.87195
2.07035
2.22585
2.31257
2.29249
2.11409
1.71064
0.942912
0.132804
0.398454
0.664139
0.929563
1.19387
1.45521
1.71008
1.95209
2.16993
2.3438
2.43952
2.40029
2.14045
1.56288
0.667214
0.135998
0.408313
0.681516
0.955966
1.2316
1.50756
1.78162
2.04898
2.30004
2.516
2.66015
2.66128
2.38744
1.63597
0.344065
0.138968
0.417543
0.698007
0.981521
1.26905
1.56119
1.85778
2.15715
2.45449
2.73808
2.98012
3.1132
2.96608
2.08429
-0.750526
0.141491
0.425451
0.712362
1.00426
1.30327
1.61168
1.93195
2.26669
2.61849
2.98901
3.37576
3.75967
4.0548
3.88874
1.58128
0.143332
0.431296
0.723231
1.02201
1.33091
1.65388
1.99601
2.36435
2.76948
3.22872
3.77346
4.46783
5.46357
7.17975
10.9448
10.7191
6.83344
5.10897
4.13213
3.46494
2.95007
2.52145
2.14695
1.80893
1.49667
1.20309
0.923126
0.652892
0.389213
0.129325
0.952768
3.42081
3.64813
3.39349
3.04554
2.69347
2.35686
2.03823
1.73588
1.44726
1.16979
0.901105
0.639046
0.381609
0.126902
-1.43822
1.56427
2.52186
2.71952
2.62896
2.42611
2.17977
1.91818
1.65328
1.39006
1.13035
0.874455
0.62197
0.372097
0.123849
-0.145525
1.1277
1.92319
2.24563
2.29031
2.18896
2.01327
1.80039
1.56947
1.33039
1.08821
0.845409
0.603059
0.361443
0.120409
0.0608346
1.02278
1.65294
1.96455
2.05307
2.00343
1.87258
1.69512
1.49129
1.27283
1.04647
0.816023
0.58362
0.350372
0.116815
0.362291
1.1482
1.60385
1.83835
1.91174
1.87429
1.76425
1.60811
1.42325
1.22073
1.00752
0.78797
0.564749
0.339506
0.113268
1.29979
1.50288
1.70832
1.82398
1.84738
1.79554
1.68791
1.54103
1.36742
1.17601
0.972957
0.762442
0.547267
0.329322
0.109924
1.79925
1.8559
1.8751
1.87364
1.83523
1.75551
1.63881
1.49249
1.32393
1.13934
0.94355
0.74013
0.531694
0.320139
0.106891
2.65607
2.2349
2.05618
1.94895
1.85174
1.74115
1.61025
1.45937
1.29155
1.11044
0.919416
0.721287
0.518276
0.312125
0.104228
2.89911
2.44547
2.1876
2.01725
1.87752
1.74086
1.59556
1.43799
1.26837
1.0884
0.9002
0.705821
0.50703
0.305319
0.101952
2.88847
2.52007
2.2582
2.06427
1.90116
1.74656
1.58935
1.42498
1.25236
1.07204
0.885264
0.693406
0.497803