/*--------------------------------*- C++ -*----------------------------------*\
| =========                 |                                                 |
| \\      /  F ield         | OpenFOAM: The Open Source CFD Toolbox           |
|  \\    /   O peration     | Version:  5.x                                   |
|   \\  /    A nd           | Web:      www.OpenFOAM.org                      |
|    \\/     M anipulation  |                                                 |
\*---------------------------------------------------------------------------*/
FoamFile
{
    version     2.0;
    format      ascii;
    class       volScalarField;
    location    "2.8";
    object      T;
}
// * * * * * * * * * * * * * * * * * * * * * * * * * * * * * * * * * * * * * //

dimensions      [0 0 0 1 0 0 0];

internalField   nonuniform List<scalar> 
6300
(
322.759
322.278
321.797
321.316
320.837
320.358
319.881
319.406
318.933
318.462
317.994
317.528
317.065
316.606
316.15
322.759
322.277
321.796
321.315
320.835
320.357
319.88
319.404
318.931
318.46
317.991
317.525
317.062
316.603
316.146
322.759
322.277
321.795
321.313
320.833
320.354
319.876
319.4
318.926
318.455
317.986
317.519
317.056
316.596
316.139
322.758
322.275
321.793
321.311
320.83
320.35
319.871
319.394
318.92
318.447
317.977
317.51
317.046
316.586
316.129
322.758
322.274
321.79
321.307
320.825
320.344
319.864
319.386
318.91
318.437
317.966
317.498
317.033
316.572
316.114
322.757
322.272
321.787
321.302
320.819
320.337
319.856
319.376
318.899
318.424
317.952
317.483
317.017
316.555
316.096
322.756
322.27
321.783
321.297
320.812
320.328
319.845
319.364
318.885
318.409
317.935
317.464
316.997
316.534
316.075
322.756
322.267
321.779
321.291
320.804
320.318
319.833
319.35
318.869
318.391
317.915
317.442
316.973
316.509
316.049
322.755
322.264
321.774
321.284
320.795
320.307
319.82
319.334
318.851
318.369
317.891
317.416
316.946
316.48
316.019
322.754
322.261
321.768
321.276
320.785
320.294
319.804
319.316
318.83
318.346
317.864
317.386
316.913
316.445
315.983
322.752
322.257
321.762
321.268
320.774
320.28
319.788
319.297
318.807
318.319
317.834
317.352
316.875
316.405
315.942
322.751
322.254
321.756
321.259
320.762
320.266
319.77
319.275
318.782
318.289
317.799
317.313
316.831
316.356
315.892
322.75
322.25
321.75
321.25
320.75
320.251
319.752
319.253
318.755
318.258
317.762
317.269
316.78
316.298
315.83
322.749
322.246
321.743
321.241
320.738
320.235
319.733
319.23
318.727
318.225
317.722
317.221
316.721
316.227
315.749
322.747
322.242
321.737
321.231
320.726
320.22
319.714
319.207
318.7
318.192
317.682
317.17
316.656
316.14
315.633
315.735
315.36
314.988
314.619
314.253
313.889
313.529
313.172
312.818
312.467
312.12
311.777
311.438
311.103
310.771
310.444
310.121
309.803
309.488
309.178
308.872
308.57
308.272
307.978
307.688
307.401
307.118
306.838
306.561
306.286
306.015
305.746
305.479
305.214
304.951
304.69
304.43
304.171
303.914
303.658
303.403
303.148
302.895
302.642
302.389
302.137
301.885
301.633
301.381
301.129
300.877
300.624
300.371
300.117
299.863
299.607
299.351
299.093
298.834
298.573
298.311
298.046
297.78
297.512
297.242
296.969
296.694
296.417
296.137
295.855
295.57
295.283
294.993
294.7
294.405
294.107
293.806
293.502
293.195
292.886
292.573
292.258
291.94
291.619
291.295
290.968
290.638
290.305
289.969
289.631
315.731
315.357
314.984
314.615
314.249
313.885
313.524
313.167
312.813
312.462
312.115
311.772
311.432
311.097
310.765
310.438
310.115
309.797
309.482
309.172
308.866
308.564
308.267
307.973
307.683
307.396
307.113
306.833
306.557
306.283
306.011
305.742
305.476
305.211
304.949
304.687
304.428
304.17
303.913
303.657
303.402
303.147
302.894
302.641
302.388
302.136
301.884
301.632
301.381
301.129
300.877
300.625
300.372
300.118
299.864
299.609
299.353
299.095
298.836
298.575
298.313
298.049
297.783
297.515
297.245
296.972
296.697
296.42
296.141
295.859
295.574
295.287
294.997
294.704
294.409
294.11
293.81
293.506
293.199
292.89
292.577
292.262
291.944
291.623
291.299
290.972
290.642
290.309
289.973
289.635
315.724
315.349
314.977
314.607
314.24
313.876
313.515
313.157
312.803
312.452
312.104
311.76
311.421
311.085
310.753
310.426
310.103
309.784
309.47
309.16
308.854
308.553
308.255
307.962
307.672
307.386
307.104
306.825
306.548
306.275
306.004
305.736
305.47
305.206
304.944
304.683
304.424
304.166
303.909
303.654
303.399
303.145
302.892
302.639
302.387
302.135
301.884
301.632
301.381
301.129
300.878
300.626
300.373
300.12
299.867
299.612
299.356
299.099
298.84
298.58
298.318
298.054
297.789
297.521
297.251
296.979
296.704
296.427
296.148
295.866
295.581
295.294
295.004
294.712
294.416
294.118
293.817
293.514
293.207
292.898
292.586
292.27
291.952
291.631
291.307
290.98
290.65
290.317
289.981
289.643
315.713
315.338
314.965
314.595
314.228
313.863
313.502
313.143
312.788
312.436
312.088
311.744
311.403
311.067
310.735
310.408
310.085
309.766
309.452
309.142
308.836
308.535
308.238
307.946
307.657
307.371
307.09
306.811
306.536
306.263
305.994
305.726
305.461
305.198
304.936
304.676
304.418
304.161
303.905
303.65
303.396
303.142
302.889
302.637
302.385
302.134
301.883
301.632
301.381
301.13
300.879
300.628
300.376
300.124
299.87
299.616
299.361
299.105
298.847
298.587
298.326
298.062
297.797
297.53
297.26
296.988
296.714
296.437
296.158
295.876
295.592
295.305
295.015
294.723
294.428
294.13
293.829
293.526
293.219
292.91
292.598
292.283
291.965
291.644
291.32
290.993
290.663
290.33
289.994
289.654
315.698
315.322
314.949
314.579
314.211
313.846
313.484
313.124
312.768
312.415
312.066
311.721
311.38
311.043
310.711
310.383
310.06
309.741
309.427
309.117
308.812
308.512
308.216
307.924
307.636
307.351
307.071
306.794
306.519
306.248
305.979
305.713
305.449
305.187
304.926
304.667
304.41
304.154
303.898
303.644
303.391
303.138
302.886
302.634
302.383
302.132
301.881
301.631
301.381
301.131
300.88
300.63
300.379
300.128
299.875
299.622
299.368
299.112
298.855
298.596
298.336
298.073
297.808
297.542
297.272
297.001
296.727
296.451
296.172
295.891
295.607
295.32
295.03
294.738
294.443
294.146
293.845
293.542
293.235
292.926
292.614
292.299
291.981
291.66
291.336
291.009
290.679
290.346
290.01
289.671
315.68
315.303
314.93
314.559
314.19
313.824
313.461
313.101
312.743
312.389
312.039
311.693
311.35
311.013
310.68
310.352
310.028
309.709
309.395
309.086
308.782
308.482
308.187
307.896
307.609
307.326
307.047
306.771
306.499
306.229
305.962
305.697
305.434
305.174
304.914
304.657
304.4
304.145
303.891
303.637
303.385
303.133
302.881
302.63
302.38
302.129
301.879
301.63
301.38
301.131
300.882
300.633
300.383
300.133
299.882
299.63
299.377
299.122
298.866
298.608
298.349
298.087
297.823
297.557
297.288
297.017
296.744
296.468
296.19
295.909
295.625
295.338
295.049
294.757
294.463
294.165
293.865
293.562
293.255
292.946
292.634
292.319
292.002
291.681
291.357
291.03
290.7
290.367
290.031
289.691
315.657
315.281
314.907
314.535
314.166
313.799
313.435
313.073
312.714
312.358
312.006
311.658
311.315
310.976
310.642
310.313
309.99
309.671
309.357
309.048
308.744
308.446
308.151
307.862
307.577
307.296
307.018
306.744
306.474
306.206
305.941
305.678
305.417
305.158
304.9
304.644
304.389
304.135
303.882
303.629
303.378
303.127
302.876
302.626
302.376
302.126
301.877
301.628
301.38
301.132
300.884
300.636
300.387
300.139
299.889
299.639
299.387
299.134
298.879
298.623
298.364
298.103
297.84
297.575
297.307
297.037
296.764
296.489
296.211
295.93
295.647
295.361
295.072
294.78
294.486
294.188
293.888
293.586
293.28
292.971
292.659
292.344
292.026
291.706
291.382
291.056
290.726
290.393
290.056
289.716
315.631
315.254
314.88
314.508
314.139
313.771
313.405
313.041
312.679
312.321
311.967
311.617
311.272
310.932
310.597
310.268
309.944
309.625
309.311
309.003
308.7
308.402
308.11
307.822
307.539
307.26
306.985
306.713
306.445
306.179
305.916
305.656
305.397
305.14
304.884
304.629
304.376
304.123
303.871
303.621
303.37
303.12
302.871
302.621
302.372
302.123
301.874
301.626
301.379
301.132
300.885
300.639
300.393
300.146
299.898
299.649
299.4
299.148
298.895
298.64
298.383
298.123
297.861
297.596
297.329
297.06
296.788
296.513
296.236
295.956
295.673
295.387
295.098
294.807
294.513
294.216
293.916
293.614
293.308
292.999
292.687
292.373
292.055
291.735
291.412
291.086
290.756
290.423
290.086
289.746
315.601
315.224
314.85
314.479
314.109
313.74
313.372
313.005
312.641
312.279
311.921
311.569
311.221
310.88
310.545
310.215
309.891
309.572
309.258
308.95
308.648
308.351
308.061
307.775
307.495
307.218
306.946
306.677
306.411
306.149
305.889
305.631
305.375
305.12
304.866
304.613
304.361
304.11
303.86
303.611
303.362
303.113
302.865
302.616
302.367
302.118
301.87
301.623
301.376
301.131
300.887
300.643
300.398
300.154
299.908
299.662
299.414
299.165
298.914
298.661
298.405
298.146
297.885
297.621
297.354
297.086
296.815
296.542
296.265
295.986
295.703
295.417
295.128
294.837
294.543
294.247
293.948
293.646
293.341
293.032
292.72
292.405
292.088
291.768
291.446
291.12
290.791
290.459
290.122
289.781
315.566
315.19
314.817
314.447
314.077
313.707
313.337
312.967
312.598
312.231
311.869
311.512
311.163
310.82
310.484
310.155
309.83
309.511
309.197
308.889
308.587
308.292
308.004
307.722
307.444
307.171
306.902
306.636
306.374
306.114
305.858
305.604
305.351
305.098
304.846
304.595
304.344
304.095
303.847
303.6
303.354
303.107
302.859
302.611
302.361
302.112
301.864
301.618
301.373
301.13
300.888
300.646
300.405
300.162
299.919
299.675
299.431
299.184
298.936
298.685
298.43
298.173
297.912
297.648
297.383
297.116
296.846
296.574
296.299
296.02
295.737
295.451
295.162
294.871
294.578
294.282
293.985
293.683
293.378
293.069
292.757
292.441
292.124
291.805
291.483
291.16
290.832
290.5
290.164
289.823
315.525
315.151
314.781
314.413
314.045
313.675
313.302
312.927
312.551
312.177
311.808
311.446
311.094
310.75
310.415
310.087
309.762
309.443
309.127
308.819
308.517
308.224
307.939
307.661
307.388
307.119
306.853
306.59
306.331
306.076
305.824
305.575
305.326
305.076
304.826
304.576
304.326
304.079
303.833
303.589
303.346
303.101
302.855
302.606
302.356
302.106
301.857
301.61
301.367
301.126
300.888
300.65
300.412
300.172
299.932
299.69
299.449
299.206
298.962
298.714
298.461
298.204
297.943
297.679
297.414
297.148
296.881
296.611
296.338
296.059
295.776
295.489
295.198
294.907
294.615
294.322
294.026
293.726
293.421
293.111
292.797
292.48
292.162
291.844
291.525
291.204
290.879
290.549
290.213
289.871
315.477
315.107
314.742
314.38
314.017
313.647
313.271
312.888
312.501
312.115
311.736
311.367
311.011
310.668
310.337
310.012
309.689
309.367
309.049
308.737
308.435
308.144
307.863
307.592
307.326
307.062
306.799
306.538
306.283
306.033
305.788
305.545
305.301
305.055
304.806
304.556
304.306
304.059
303.816
303.577
303.339
303.098
302.853
302.603
302.351
302.097
301.845
301.598
301.356
301.12
300.887
300.655
300.421
300.183
299.944
299.706
299.468
299.232
298.993
298.749
298.498
298.24
297.978
297.712
297.446
297.182
296.919
296.654
296.383
296.106
295.821
295.53
295.237
294.944
294.653
294.364
294.073
293.776
293.472
293.159
292.842
292.521
292.201
291.884
291.57
291.254
290.933
290.605
290.27
289.928
315.418
315.056
314.697
314.349
313.997
313.629
313.25
312.853
312.451
312.043
311.649
311.269
310.911
310.57
310.249
309.934
309.612
309.288
308.96
308.643
308.337
308.049
307.775
307.516
307.261
307.002
306.742
306.48
306.227
305.982
305.748
305.517
305.28
305.038
304.788
304.535
304.28
304.033
303.794
303.565
303.337
303.101
302.858
302.605
302.347
302.084
301.828
301.577
301.338
301.107
300.885
300.663
300.433
300.198
299.956
299.72
299.486
299.26
299.032
298.793
298.545
298.284
298.017
297.743
297.476
297.214
296.96
296.706
296.439
296.163
295.873
295.577
295.274
294.978
294.689
294.409
294.129
293.836
293.533
293.215
292.891
292.559
292.236
291.92
291.616
291.312
290.996
290.671
290.335
289.996
315.342
315
314.639
314.321
314.001
313.629
313.253
312.827
312.41
311.951
311.543
311.137
310.786
310.444
310.153
309.866
309.538
309.213
308.854
308.533
308.213
307.935
307.664
307.432
307.204
306.945
306.689
306.408
306.159
305.914
305.704
305.499
305.265
305.033
304.772
304.518
304.242
303.997
303.756
303.55
303.346
303.113
302.878
302.613
302.351
302.062
301.802
301.54
301.309
301.081
300.883
300.683
300.452
300.22
299.962
299.728
299.494
299.291
299.086
298.85
298.609
298.336
298.065
297.766
297.499
297.233
297.003
296.774
296.508
296.239
295.934
295.632
295.3
295.004
294.709
294.456
294.203
293.911
293.615
293.28
292.95
292.586
292.261
291.939
291.662
291.387
291.071
290.755
290.404
290.077
315.228
314.969
314.517
314.299
314.081
313.633
313.327
312.789
312.429
311.785
311.434
310.928
310.646
310.246
310.051
309.857
309.461
309.188
308.694
308.423
308.03
307.809
307.496
307.343
307.191
306.883
306.67
306.291
306.084
305.795
305.655
305.52
305.25
305.067
304.748
304.534
304.158
303.954
303.67
303.532
303.397
303.128
302.942
302.616
302.395
301.998
301.778
301.458
301.275
301.012
300.881
300.748
300.474
300.281
299.93
299.737
299.459
299.323
299.187
298.912
298.721
298.383
298.154
297.744
297.519
297.201
297.046
296.893
296.582
296.368
295.988
295.732
295.275
295.026
294.672
294.501
294.332
293.99
293.754
293.338
293.057
292.555
292.282
291.894
291.706
291.521
291.145
290.889
290.44
290.189
289.255
288.842
288.424
288.004
287.58
287.153
286.723
286.291
285.856
285.42
284.982
284.543
284.103
283.662
283.221
289.259
288.845
288.428
288.007
287.583
287.155
286.725
286.293
285.858
285.421
284.983
284.544
284.103
283.662
283.221
289.267
288.853
288.435
288.013
287.589
287.161
286.73
286.297
285.862
285.424
284.986
284.546
284.105
283.663
283.221
289.278
288.864
288.445
288.023
287.598
287.169
286.737
286.303
285.867
285.429
284.989
284.549
284.107
283.664
283.221
289.294
288.879
288.459
288.036
287.61
287.18
286.747
286.312
285.874
285.435
284.994
284.552
284.11
283.666
283.222
289.314
288.898
288.477
288.053
287.625
287.193
286.759
286.322
285.883
285.443
285.001
284.557
284.113
283.668
283.223
289.338
288.921
288.499
288.073
287.643
287.21
286.774
286.335
285.894
285.452
285.008
284.563
284.117
283.67
283.223
289.367
288.949
288.525
288.097
287.665
287.229
286.791
286.35
285.907
285.462
285.016
284.569
284.121
283.673
283.224
289.402
288.981
288.555
288.125
287.69
287.251
286.81
286.366
285.921
285.474
285.026
284.576
284.127
283.676
283.225
289.442
289.02
288.591
288.157
287.718
287.276
286.832
286.385
285.937
285.487
285.036
284.584
284.132
283.679
283.226
289.489
289.064
288.631
288.193
287.75
287.304
286.855
286.405
285.953
285.501
285.047
284.593
284.138
283.683
283.228
289.545
289.116
288.678
288.233
287.785
287.334
286.881
286.427
285.971
285.515
285.059
284.602
284.144
283.687
283.229
289.612
289.176
288.73
288.278
287.823
287.366
286.908
286.449
285.99
285.531
285.071
284.611
284.151
283.691
283.23
289.694
289.247
288.789
288.326
287.862
287.399
286.935
286.472
286.009
285.546
285.083
284.62
284.158
283.695
283.232
289.806
289.331
288.851
288.374
287.901
287.431
286.962
286.495
286.028
285.562
285.096
284.63
284.164
283.698
283.233
322.746
322.239
321.731
321.223
320.715
320.206
319.697
319.187
318.676
318.162
317.647
317.126
316.598
316.054
315.465
322.745
322.236
321.726
321.216
320.705
320.194
319.682
319.169
318.655
318.138
317.617
317.092
316.557
316.005
315.42
322.744
322.233
321.721
321.209
320.696
320.183
319.668
319.153
318.635
318.116
317.592
317.064
316.527
315.981
315.423
322.743
322.23
321.716
321.202
320.687
320.172
319.655
319.138
318.618
318.096
317.57
317.041
316.505
315.964
315.418
322.742
322.227
321.712
321.196
320.679
320.162
319.643
319.124
318.602
318.078
317.552
317.022
316.488
315.95
315.409
322.742
322.225
321.707
321.19
320.672
320.153
319.632
319.111
318.588
318.063
317.535
317.005
316.473
315.938
315.403
322.741
322.222
321.703
321.184
320.664
320.144
319.622
319.099
318.575
318.049
317.521
316.991
316.459
315.926
315.396
322.74
322.22
321.7
321.179
320.658
320.136
319.613
319.089
318.564
318.037
317.508
316.978
316.446
315.913
315.38
322.739
322.218
321.696
321.175
320.652
320.129
319.605
319.08
318.553
318.025
317.496
316.965
316.433
315.901
315.369
322.739
322.216
321.693
321.17
320.647
320.122
319.597
319.071
318.544
318.015
317.485
316.954
316.421
315.887
315.35
322.738
322.215
321.691
321.166
320.642
320.116
319.59
319.063
318.535
318.006
317.475
316.943
316.41
315.876
315.34
322.738
322.213
321.688
321.163
320.637
320.111
319.584
319.056
318.527
317.997
317.466
316.934
316.4
315.865
315.327
322.737
322.212
321.686
321.16
320.633
320.106
319.578
319.05
318.52
317.99
317.458
316.926
316.392
315.856
315.319
322.737
322.21
321.684
321.157
320.629
320.101
319.573
319.044
318.514
317.983
317.451
316.918
316.384
315.848
315.31
322.736
322.209
321.682
321.154
320.626
320.097
319.568
319.039
318.508
317.977
317.444
316.911
316.377
315.842
315.306
322.736
322.208
321.68
321.152
320.623
320.094
319.564
319.034
318.503
317.971
317.439
316.905
316.371
315.836
315.302
322.736
322.207
321.678
321.149
320.62
320.091
319.56
319.03
318.498
317.966
317.433
316.9
316.366
315.831
315.295
322.735
322.206
321.677
321.148
320.618
320.088
319.557
319.026
318.494
317.962
317.429
316.895
316.361
315.826
315.291
322.735
322.206
321.676
321.146
320.616
320.085
319.554
319.023
318.491
317.958
317.425
316.891
316.356
315.821
315.284
322.735
322.205
321.675
321.144
320.614
320.083
319.552
319.02
318.487
317.955
317.421
316.887
316.352
315.816
315.28
322.735
322.204
321.674
321.143
320.612
320.081
319.549
319.017
318.485
317.952
317.418
316.884
316.349
315.813
315.276
322.735
322.204
321.673
321.142
320.611
320.079
319.547
319.015
318.482
317.949
317.415
316.881
316.346
315.81
315.274
322.734
322.203
321.672
321.141
320.609
320.078
319.546
319.013
318.48
317.947
317.413
316.879
316.344
315.808
315.273
322.734
322.203
321.672
321.14
320.608
320.077
319.544
319.012
318.479
317.945
317.411
316.877
316.342
315.806
315.27
322.734
322.203
321.671
321.14
320.608
320.076
319.543
319.01
318.477
317.944
317.41
316.875
316.34
315.805
315.269
322.734
322.203
321.671
321.139
320.607
320.075
319.542
319.009
318.476
317.943
317.408
316.874
316.339
315.803
315.267
322.734
322.202
321.671
321.139
320.607
320.074
319.542
319.009
318.475
317.942
317.408
316.873
316.338
315.803
315.267
322.734
322.202
321.67
321.138
320.606
320.074
319.541
319.008
318.475
317.941
317.407
316.873
316.338
315.802
315.266
322.734
322.202
321.67
321.138
320.606
320.074
319.541
319.008
318.475
317.941
317.407
316.873
316.338
315.802
315.266
322.734
322.202
321.67
321.138
320.606
320.074
319.541
319.008
318.475
317.941
317.407
316.873
316.338
315.802
315.267
322.734
322.202
321.67
321.139
320.606
320.074
319.541
319.009
318.475
317.942
317.408
316.873
316.338
315.803
315.267
322.734
322.202
321.671
321.139
320.607
320.075
319.542
319.009
318.476
317.943
317.409
316.874
316.339
315.804
315.268
322.734
322.203
321.671
321.139
320.607
320.075
319.543
319.01
318.477
317.944
317.41
316.876
316.341
315.806
315.27
322.734
322.203
321.671
321.14
320.608
320.076
319.544
319.011
318.478
317.945
317.412
316.877
316.343
315.808
315.271
322.734
322.203
321.672
321.14
320.609
320.077
319.545
319.013
318.48
317.947
317.414
316.88
316.345
315.81
315.275
322.734
322.203
321.672
321.141
320.61
320.078
319.546
319.014
318.482
317.949
317.416
316.882
316.348
315.813
315.278
322.735
322.204
321.673
321.142
320.611
320.08
319.548
319.016
318.484
317.951
317.418
316.885
316.351
315.817
315.283
322.735
322.204
321.674
321.143
320.612
320.081
319.55
319.018
318.486
317.954
317.421
316.888
316.355
315.821
315.286
322.735
322.205
321.675
321.144
320.614
320.083
319.552
319.021
318.489
317.957
317.425
316.892
316.359
315.825
315.292
322.735
322.205
321.676
321.146
320.615
320.085
319.554
319.024
318.492
317.961
317.428
316.896
316.363
315.829
315.295
322.735
322.206
321.677
321.147
320.617
320.087
319.557
319.027
318.496
317.964
317.432
316.9
316.367
315.833
315.298
322.736
322.207
321.678
321.149
320.619
320.09
319.56
319.03
318.499
317.968
317.437
316.905
316.372
315.839
315.304
322.736
322.207
321.679
321.15
320.621
320.092
319.563
319.033
318.503
317.973
317.442
316.91
316.378
315.844
315.309
322.736
322.208
321.68
321.152
320.624
320.095
319.566
319.037
318.508
317.978
317.447
316.916
316.384
315.852
315.319
322.736
322.209
321.682
321.154
320.626
320.098
319.57
319.041
318.512
317.983
317.453
316.922
316.391
315.859
315.326
322.737
322.21
321.683
321.156
320.629
320.102
319.574
319.046
318.518
317.989
317.459
316.929
316.399
315.868
315.339
322.737
322.211
321.685
321.158
320.632
320.105
319.578
319.051
318.523
317.995
317.466
316.937
316.407
315.877
315.346
322.737
322.212
321.686
321.161
320.635
320.109
319.583
319.056
318.529
318.001
317.473
316.944
316.415
315.886
315.358
322.738
322.213
321.688
321.163
320.638
320.113
319.587
319.061
318.535
318.008
317.48
316.952
316.423
315.894
315.363
322.738
322.214
321.69
321.166
320.642
320.117
319.592
319.067
318.541
318.015
317.488
316.96
316.432
315.902
315.369
322.739
322.215
321.692
321.169
320.646
320.122
319.598
319.073
318.548
318.023
317.497
316.97
316.442
315.912
315.382
322.739
322.217
321.695
321.172
320.65
320.127
319.603
319.08
318.556
318.031
317.506
316.979
316.452
315.923
315.392
322.739
322.218
321.697
321.175
320.654
320.132
319.609
319.087
318.563
318.04
317.515
316.99
316.464
315.937
315.409
322.74
322.22
321.699
321.179
320.658
320.137
319.616
319.094
318.572
318.049
317.525
317.001
316.476
315.95
315.421
322.74
322.221
321.702
321.182
320.663
320.143
319.622
319.102
318.58
318.059
317.536
317.013
316.49
315.966
315.445
322.741
322.223
321.704
321.186
320.667
320.149
319.629
319.11
318.589
318.069
317.547
317.025
316.503
315.981
315.458
322.741
322.224
321.707
321.19
320.672
320.155
319.637
319.118
318.599
318.079
317.559
317.038
316.517
315.996
315.477
322.742
322.226
321.71
321.194
320.678
320.161
319.644
319.127
318.609
318.09
317.571
317.051
316.53
316.009
315.487
322.743
322.228
321.713
321.198
320.683
320.168
319.652
319.136
318.619
318.102
317.584
317.065
316.545
316.023
315.497
322.743
322.23
321.716
321.203
320.689
320.175
319.66
319.145
318.63
318.114
317.597
317.079
316.56
316.039
315.518
322.744
322.232
321.72
321.207
320.695
320.182
319.669
319.155
318.641
318.126
317.611
317.094
316.577
316.057
315.533
322.745
322.234
321.723
321.212
320.701
320.189
319.678
319.166
318.653
318.14
317.626
317.111
316.595
316.078
315.56
322.745
322.236
321.727
321.217
320.707
320.197
319.687
319.176
318.665
318.153
317.641
317.128
316.614
316.099
315.58
322.746
322.238
321.73
321.222
320.714
320.205
319.696
319.187
318.678
318.167
317.657
317.146
316.634
316.123
315.615
322.747
322.24
321.734
321.227
320.721
320.214
319.706
319.199
318.69
318.182
317.673
317.164
316.654
316.145
315.635
322.748
322.243
321.738
321.233
320.727
320.222
319.716
319.21
318.704
318.197
317.69
317.182
316.674
316.167
315.664
322.748
322.245
321.742
321.238
320.735
320.231
319.727
319.222
318.717
318.212
317.706
317.2
316.693
316.186
315.678
322.749
322.247
321.746
321.244
320.742
320.24
319.737
319.234
318.731
318.228
317.724
317.219
316.713
316.205
315.692
322.75
322.25
321.75
321.25
320.749
320.249
319.748
319.247
318.746
318.244
317.742
317.238
316.734
316.228
315.722
322.751
322.252
321.754
321.256
320.757
320.258
319.759
319.26
318.76
318.26
317.76
317.259
316.757
316.252
315.742
322.752
322.255
321.758
321.262
320.765
320.268
319.77
319.273
318.775
318.277
317.779
317.28
316.78
316.28
315.78
322.753
322.258
321.763
321.268
320.772
320.277
319.782
319.286
318.79
318.294
317.798
317.302
316.805
316.307
315.805
322.753
322.26
321.767
321.274
320.78
320.287
319.793
319.3
318.806
318.312
317.818
317.324
316.83
316.338
315.851
322.754
322.263
321.772
321.28
320.788
320.297
319.805
319.313
318.821
318.329
317.837
317.346
316.855
316.365
315.876
322.755
322.266
321.776
321.286
320.797
320.307
319.817
319.327
318.837
318.347
317.857
317.367
316.878
316.392
315.911
322.756
322.268
321.781
321.293
320.805
320.317
319.829
319.341
318.852
318.364
317.876
317.388
316.901
316.414
315.928
322.757
322.271
321.785
321.299
320.813
320.327
319.841
319.354
318.868
318.382
317.895
317.409
316.923
316.435
315.944
322.758
322.274
321.79
321.306
320.822
320.337
319.853
319.368
318.884
318.399
317.915
317.43
316.945
316.46
315.976
322.759
322.277
321.795
321.312
320.83
320.348
319.865
319.382
318.899
318.417
317.934
317.451
316.968
316.485
315.997
322.76
322.28
321.799
321.319
320.839
320.358
319.877
319.396
318.915
318.434
317.953
317.472
316.992
316.512
316.034
322.761
322.283
321.804
321.326
320.847
320.369
319.89
319.41
318.931
318.452
317.972
317.493
317.015
316.537
316.057
322.762
322.286
321.809
321.333
320.856
320.379
319.902
319.425
318.947
318.469
317.991
317.514
317.037
316.563
316.096
322.763
322.289
321.814
321.34
320.865
320.39
319.915
319.439
318.963
318.487
318.01
317.534
317.058
316.585
316.115
322.764
322.292
321.82
321.347
320.874
320.402
319.928
319.454
318.98
318.505
318.029
317.553
317.078
316.605
316.139
322.765
322.295
321.825
321.355
320.884
320.413
319.942
319.47
318.997
318.523
318.048
317.572
317.096
316.62
316.148
322.766
322.298
321.83
321.362
320.894
320.425
319.956
319.485
319.014
318.542
318.067
317.591
317.113
316.634
316.154
322.767
322.302
321.836
321.37
320.904
320.437
319.97
319.502
319.033
318.562
318.089
317.612
317.131
316.646
316.16
322.768
322.305
321.842
321.378
320.914
320.45
319.985
319.52
319.053
318.584
318.112
317.636
317.153
316.661
316.16
322.77
322.309
321.848
321.386
320.925
320.463
320.001
319.538
319.074
318.607
318.138
317.664
317.181
316.681
316.147
322.771
322.312
321.854
321.395
320.936
320.477
320.017
319.557
319.096
318.633
318.168
317.698
317.22
316.726
316.186
289.963
289.411
288.904
288.415
287.935
287.459
286.986
286.515
286.045
285.576
285.107
284.638
284.17
283.702
283.234
289.999
289.452
288.941
288.447
287.962
287.483
287.007
286.533
286.06
285.588
285.117
284.646
284.176
283.705
283.235
289.978
289.468
288.965
288.472
287.986
287.504
287.025
286.549
286.074
285.6
285.126
284.654
284.181
283.708
283.236
289.975
289.478
288.983
288.492
288.006
287.523
287.043
286.564
286.087
285.611
285.136
284.661
284.186
283.712
283.237
289.976
289.486
288.997
288.509
288.024
287.541
287.059
286.579
286.1
285.622
285.145
284.668
284.191
283.714
283.238
289.976
289.495
289.01
288.525
288.04
287.557
287.074
286.593
286.112
285.632
285.153
284.674
284.196
283.717
283.239
289.982
289.506
289.024
288.54
288.056
287.572
287.088
286.606
286.124
285.642
285.161
284.681
284.2
283.72
283.24
289.998
289.52
289.039
288.555
288.071
287.586
287.102
286.618
286.135
285.652
285.169
284.687
284.205
283.723
283.241
290.012
289.537
289.055
288.571
288.086
287.601
287.116
286.631
286.146
285.661
285.177
284.693
284.209
283.725
283.242
290.042
289.557
289.073
288.588
288.102
287.616
287.129
286.643
286.157
285.671
285.185
284.699
284.213
283.728
283.243
290.06
289.577
289.092
288.605
288.118
287.63
287.142
286.655
286.167
285.68
285.192
284.705
284.218
283.731
283.244
290.09
289.599
289.111
288.622
288.134
287.645
287.156
286.666
286.177
285.688
285.199
284.711
284.222
283.733
283.244
290.108
289.619
289.13
288.64
288.15
287.659
287.169
286.678
286.188
285.697
285.207
284.716
284.226
283.735
283.245
290.135
289.64
289.148
288.657
288.166
287.674
287.182
286.69
286.198
285.706
285.214
284.722
284.23
283.738
283.246
290.149
289.658
289.167
288.675
288.182
287.689
287.195
286.702
286.208
285.715
285.221
284.727
284.234
283.74
283.247
290.163
289.678
289.186
288.693
288.199
287.704
287.209
286.714
286.218
285.723
285.228
284.733
284.238
283.743
283.248
290.194
289.701
289.207
288.711
288.215
287.719
287.222
286.725
286.229
285.732
285.235
284.738
284.242
283.745
283.248
290.215
289.724
289.228
288.73
288.232
287.734
287.236
286.737
286.239
285.74
285.242
284.744
284.246
283.747
283.249
290.256
289.751
289.25
288.75
288.249
287.749
287.249
286.749
286.249
285.749
285.249
284.749
284.249
283.75
283.25
290.278
289.775
289.272
288.769
288.266
287.764
287.262
286.761
286.259
285.757
285.256
284.755
284.253
283.752
283.251
290.312
289.8
289.293
288.788
288.283
287.779
287.276
286.772
286.269
285.766
285.263
284.76
284.257
283.754
283.251
290.33
289.821
289.313
288.806
288.3
287.794
287.289
286.784
286.279
285.774
285.27
284.765
284.261
283.756
283.252
290.357
289.842
289.332
288.823
288.316
287.808
287.301
286.795
286.288
285.782
285.276
284.77
284.264
283.759
283.253
290.37
289.86
289.35
288.84
288.331
287.822
287.314
286.806
286.298
285.79
285.283
284.775
284.268
283.761
283.254
290.382
289.877
289.367
288.857
288.346
287.836
287.326
286.817
286.307
285.798
285.289
284.78
284.272
283.763
283.254
290.409
289.897
289.385
288.873
288.361
287.85
287.338
286.827
286.316
285.806
285.295
284.785
284.275
283.765
283.255
290.427
289.917
289.404
288.89
288.376
287.863
287.35
286.838
286.325
285.813
285.302
284.79
284.278
283.767
283.256
290.46
289.939
289.422
288.906
288.391
287.876
287.362
286.848
286.334
285.821
285.308
284.795
284.282
283.769
283.256
290.478
289.959
289.44
288.922
288.405
287.889
287.373
286.858
286.343
285.828
285.313
284.799
284.285
283.771
283.257
290.504
289.978
289.457
288.937
288.419
287.901
287.384
286.867
286.351
285.835
285.319
284.804
284.288
283.773
283.258
290.518
289.995
289.472
288.952
288.432
287.913
287.394
286.876
286.359
285.842
285.325
284.808
284.291
283.775
283.258
290.538
290.01
289.487
288.965
288.444
287.924
287.405
286.885
286.367
285.848
285.33
284.812
284.294
283.776
283.259
290.547
290.023
289.5
288.978
288.456
287.935
287.414
286.894
286.374
285.855
285.335
284.816
284.297
283.778
283.259
290.556
290.036
289.513
288.99
288.468
287.946
287.424
286.903
286.382
285.861
285.34
284.82
284.3
283.78
283.26
290.575
290.05
289.526
289.003
288.479
287.956
287.433
286.911
286.389
285.867
285.345
284.824
284.303
283.782
283.261
290.587
290.064
289.539
289.014
288.49
287.966
287.442
286.918
286.395
285.873
285.35
284.828
284.305
283.783
283.261
290.609
290.079
289.552