/*--------------------------------*- C++ -*----------------------------------*\
| =========                 |                                                 |
| \\      /  F ield         | OpenFOAM: The Open Source CFD Toolbox           |
|  \\    /   O peration     | Version:  5.x                                   |
|   \\  /    A nd           | Web:      www.OpenFOAM.org                      |
|    \\/     M anipulation  |                                                 |
\*---------------------------------------------------------------------------*/
FoamFile
{
    version     2.0;
    format      ascii;
    class       volScalarField;
    location    "3.4";
    object      gradTx;
}
// * * * * * * * * * * * * * * * * * * * * * * * * * * * * * * * * * * * * * //

dimensions      [0 -1 0 1 0 0 0];

internalField   nonuniform List<scalar> 
6300
(
-48.1979
-48.176
-48.1319
-48.0656
-47.977
-47.8658
-47.732
-47.5757
-47.3972
-47.1974
-46.9771
-46.7379
-46.4813
-46.2092
-45.9231
-48.22
-48.1981
-48.1542
-48.0881
-47.9996
-47.8885
-47.7546
-47.5979
-47.4188
-47.2179
-46.9962
-46.7553
-46.497
-46.2232
-45.936
-48.2641
-48.2424
-48.1988
-48.1331
-48.045
-47.934
-47.8
-47.6427
-47.4623
-47.2593
-47.0347
-46.7903
-46.5282
-46.2509
-45.9611
-48.33
-48.3086
-48.2656
-48.2006
-48.1132
-48.0028
-47.8688
-47.7107
-47.5285
-47.3223
-47.0933
-46.8432
-46.5747
-46.2913
-45.9968
-48.4173
-48.3965
-48.3544
-48.2907
-48.2046
-48.0953
-47.9618
-47.8031
-47.6186
-47.4084
-47.173
-46.9145
-46.6362
-46.343
-46.0404
-48.5257
-48.5056
-48.465
-48.4033
-48.3194
-48.2121
-48.0799
-47.9213
-47.7348
-47.5196
-47.276
-47.0057
-46.7129
-46.4041
-46.0879
-48.6542
-48.6352
-48.5968
-48.538
-48.4576
-48.3539
-48.2246
-48.0674
-47.8797
-47.6595
-47.4057
-47.1196
-46.8057
-46.4728
-46.1339
-48.8019
-48.7844
-48.749
-48.6945
-48.6194
-48.5213
-48.3974
-48.2441
-48.0573
-47.833
-47.5679
-47.2615
-46.9177
-46.5477
-46.1708
-48.9671
-48.9517
-48.9203
-48.8717
-48.8041
-48.7146
-48.5997
-48.4543
-48.2725
-48.0473
-47.7716
-47.4408
-47.056
-46.6295
-46.1893
-49.1478
-49.135
-49.1088
-49.068
-49.0106
-48.9336
-48.8325
-48.7011
-48.5313
-48.3121
-48.0306
-47.6743
-47.2361
-46.725
-46.1791
-49.3414
-49.3318
-49.312
-49.2811
-49.2369
-49.1766
-49.0955
-48.9866
-48.8395
-48.6392
-48.3646
-47.9897
-47.4892
-46.8554
-46.1322
-49.5446
-49.5387
-49.5266
-49.5074
-49.4795
-49.4406
-49.3864
-49.3103
-49.2011
-49.0405
-48.799
-48.431
-47.8754
-47.0754
-46.051
-49.7537
-49.752
-49.7483
-49.7423
-49.7333
-49.7198
-49.6993
-49.6671
-49.6141
-49.5229
-49.3598
-49.06
-48.5062
-47.5201
-45.97
-49.9647
-49.9672
-49.9724
-49.9804
-49.9915
-50.006
-50.024
-50.0448
-50.0653
-50.0773
-50.0574
-49.9431
-49.5694
-48.5288
-46.0484
-50.1732
-50.1799
-50.1936
-50.2153
-50.2464
-50.2889
-50.3461
-50.4226
-50.5253
-50.6636
-50.8495
-51.0857
-51.2996
-50.9773
-47.1946
-45.6502
-45.3926
-45.1263
-44.8505
-44.564
-44.2654
-43.953
-43.6253
-43.2811
-42.9196
-42.5408
-42.1452
-41.7342
-41.3094
-40.873
-40.4277
-39.9761
-39.5211
-39.0654
-38.6121
-38.1641
-37.7241
-37.2948
-36.8788
-36.4783
-36.095
-35.7305
-35.3858
-35.0616
-34.7582
-34.4754
-34.213
-33.97
-33.7456
-33.5385
-33.3477
-33.1717
-33.0094
-32.8594
-32.7206
-32.5919
-32.4722
-32.3606
-32.2565
-32.1593
-32.0691
-31.986
-31.9107
-31.844
-31.7871
-31.7411
-31.7072
-31.6863
-31.6793
-31.6868
-31.7091
-31.7463
-31.7982
-31.8644
-31.9442
-32.0371
-32.142
-32.2582
-32.3849
-32.5215
-32.6672
-32.8216
-32.9842
-33.1544
-33.3319
-33.5164
-33.7075
-33.905
-34.1088
-34.3189
-34.5353
-34.7578
-34.9866
-35.2214
-35.4621
-35.7086
-35.9607
-36.2182
-36.4806
-36.7474
-37.018
-37.2913
-37.566
-37.8403
-38.1125
-45.6627
-45.4055
-45.1402
-44.866
-44.5817
-44.2854
-43.9752
-43.6493
-43.3062
-42.9448
-42.5652
-42.1678
-41.7542
-41.3262
-40.8863
-40.4371
-39.9814
-39.5222
-39.0624
-38.6049
-38.1527
-37.7089
-37.276
-36.8569
-36.4537
-36.0683
-35.7022
-35.3566
-35.032
-34.7287
-34.4466
-34.1852
-33.9436
-33.7208
-33.5156
-33.3265
-33.1524
-32.9918
-32.8436
-32.7064
-32.5792
-32.4608
-32.3502
-32.2467
-32.1496
-32.059
-31.975
-31.8984
-31.8302
-31.7716
-31.724
-31.6886
-31.6665
-31.6586
-31.6656
-31.6877
-31.7252
-31.7777
-31.8447
-31.9256
-32.0196
-32.1257
-32.243
-32.3707
-32.5082
-32.6547
-32.8098
-32.973
-33.1438
-33.3218
-33.5066
-33.698
-33.8956
-34.0995
-34.3097
-34.526
-34.7487
-34.9775
-35.2125
-35.4535
-35.7003
-35.9527
-36.2106
-36.4737
-36.7417
-37.0137
-37.2889
-37.5659
-37.843
-38.1181
-45.6867
-45.4301
-45.167
-44.8964
-44.6168
-44.3256
-44.0204
-43.6984
-43.3576
-42.9967
-42.6153
-42.2142
-41.7951
-41.3605
-40.9131
-40.456
-39.9921
-39.5245
-39.0562
-38.5903
-38.1298
-37.678
-37.2379
-36.8124
-36.4038
-36.0141
-35.645
-35.2974
-34.9721
-34.6691
-34.3884
-34.1292
-33.8905
-33.6712
-33.4696
-33.2843
-33.1139
-32.9569
-32.8121
-32.6783
-32.5541
-32.4385
-32.33
-32.2278
-32.131
-32.0396
-31.9537
-31.8743
-31.8027
-31.7406
-31.6894
-31.6509
-31.6263
-31.6166
-31.6226
-31.6445
-31.6825
-31.7362
-31.8051
-31.8883
-31.9847
-32.0933
-32.2128
-32.3425
-32.4817
-32.6297
-32.7862
-32.9506
-33.1226
-33.3017
-33.4873
-33.6792
-33.8771
-34.081
-34.2911
-34.5075
-34.7302
-34.9594
-35.1947
-35.4361
-35.6833
-35.9364
-36.1951
-36.4595
-36.7295
-37.0044
-37.2835
-37.5652
-37.8479
-38.1291
-45.7202
-45.4643
-45.2047
-44.9402
-44.6685
-44.3864
-44.0899
-43.7749
-43.4384
-43.0782
-42.6939
-42.2867
-41.8587
-41.4134
-40.9543
-40.4849
-40.0085
-39.5282
-39.047
-38.5681
-38.0948
-37.6307
-37.1793
-36.7437
-36.3268
-35.9308
-35.557
-35.2066
-34.8802
-34.5779
-34.2994
-34.0439
-33.8101
-33.5962
-33.4005
-33.2211
-33.0563
-32.9047
-32.7652
-32.6364
-32.5172
-32.406
-32.3012
-32.2013
-32.1051
-32.0123
-31.9233
-31.8392
-31.762
-31.6938
-31.6369
-31.5934
-31.5648
-31.5523
-31.5567
-31.5783
-31.6172
-31.673
-31.745
-31.8319
-31.9324
-32.0449
-32.168
-32.3007
-32.4423
-32.5925
-32.7509
-32.9173
-33.0912
-33.2719
-33.4588
-33.6515
-33.8496
-34.0534
-34.2632
-34.4794
-34.7023
-34.9319
-35.1679
-35.4099
-35.6578
-35.9114
-36.171
-36.437
-36.7096
-36.9887
-37.2736
-37.5629
-37.8543
-38.1452
-45.7596
-45.5042
-45.2495
-44.9944
-44.7356
-44.4682
-44.186
-43.8828
-43.5534
-43.1947
-42.806
-42.3891
-41.9477
-41.4866
-41.0106
-40.5242
-40.0308
-39.5334
-39.0348
-38.5381
-38.0469
-37.5655
-37.098
-36.6486
-36.2203
-35.8156
-35.4357
-35.0817
-34.754
-34.4528
-34.1777
-33.9277
-33.7011
-33.4955
-33.3084
-33.1372
-32.9801
-32.8356
-32.703
-32.5813
-32.4691
-32.3647
-32.2656
-32.1696
-32.0746
-31.9799
-31.886
-31.7945
-31.7084
-31.6309
-31.5654
-31.5146
-31.4803
-31.4639
-31.4661
-31.4873
-31.5276
-31.5866
-31.6633
-31.7561
-31.8628
-31.9812
-32.1094
-32.246
-32.3906
-32.5432
-32.704
-32.873
-33.0496
-33.233
-33.4219
-33.6156
-33.8138
-34.0169
-34.2258
-34.4414
-34.6645
-34.8948
-35.1319
-35.375
-35.6235
-35.8774
-36.1373
-36.4044
-36.6798
-36.9642
-37.257
-37.5568
-37.8609
-38.1659
-45.7992
-45.5432
-45.2951
-45.0541
-44.8155
-44.5716
-44.3126
-44.0285
-43.7108
-43.3546
-42.9589
-42.5271
-42.0654
-41.5814
-41.0823
-40.5737
-40.0592
-39.5407
-39.0202
-38.5004
-37.9853
-37.4803
-36.9912
-36.5233
-36.0804
-35.6648
-35.2776
-34.9193
-34.5901
-34.2904
-34.0202
-33.7783
-33.5623
-33.3687
-33.1935
-33.0334
-32.8858
-32.7499
-32.6255
-32.5126
-32.4102
-32.3158
-32.226
-32.1366
-32.0441
-31.9469
-31.8453
-31.7423
-31.6425
-31.5511
-31.4731
-31.412
-31.3703
-31.3489
-31.3483
-31.369
-31.4112
-31.4748
-31.5586
-31.6602
-31.7764
-31.9035
-32.0385
-32.1798
-32.3273
-32.482
-32.6452
-32.8175
-32.9983
-33.1859
-33.378
-33.5731
-33.7707
-33.9718
-34.1783
-34.3926
-34.6157
-34.8477
-35.0871
-35.332
-35.5811
-35.8342
-36.0927
-36.3594
-36.6368
-36.927
-37.23
-37.5441
-37.8657
-38.1904
-45.8304
-45.5708
-45.3309
-45.1104
-44.9031
-44.6969
-44.4757
-44.2228
-43.9241
-43.5715
-43.1642
-42.7084
-42.2154
-41.6981
-41.168
-40.6322
-40.0934
-39.5513
-39.0051
-38.4562
-37.9096
-37.3727
-36.8543
-36.3622
-35.9014
-35.4735
-35.0784
-34.7151
-34.384
-34.086
-33.8222
-33.5919
-33.3916
-33.2156
-33.0575
-32.9117
-32.7752
-32.6479
-32.5319
-32.4292
-32.3399
-32.2609
-32.1862
-32.1083
-32.0209
-31.9202
-31.8069
-31.6858
-31.5647
-31.4523
-31.3564
-31.282
-31.2311
-31.204
-31.2001
-31.2197
-31.2641
-31.3339
-31.4282
-31.5435
-31.6743
-31.8143
-31.9585
-32.1045
-32.2535
-32.4085
-32.5732
-32.7497
-32.9371
-33.1319
-33.3296
-33.5267
-33.7223
-33.9184
-34.1196
-34.3305
-34.5539
-34.7894
-35.0338
-35.2826
-35.5325
-35.7827
-36.0362
-36.2982
-36.575
-36.8707
-37.1864
-37.5198
-37.8658
-38.2176
-45.84
-45.5702
-45.3388
-45.148
-44.9894
-44.8439
-44.6847
-44.4831
-44.2153
-43.8675
-43.4395
-42.9436
-42.4006
-41.8338
-41.262
-40.6952
-40.1328
-39.568
-38.994
-38.4093
-37.82
-37.2387
-36.68
-36.1566
-35.6751
-35.2355
-34.8335
-34.4652
-34.1304
-33.8327
-33.5764
-33.3626
-33.1862
-33.0373
-32.9041
-32.777
-32.6517
-32.5302
-32.4194
-32.3267
-32.2551
-32.2002
-32.1512
-32.0943
-32.0169
-31.912
-31.7801
-31.6297
-31.4746
-31.3301
-31.2089
-31.1181
-31.0581
-31.0257
-31.018
-31.0351
-31.0804
-31.1577
-31.2675
-31.4046
-31.559
-31.7191
-31.8757
-32.0252
-32.1708
-32.3208
-32.4842
-32.6661
-32.8651
-33.0736
-33.2819
-33.4824
-33.6727
-33.8576
-34.0466
-34.2502
-34.4744
-34.7181
-34.9738
-35.2314
-35.483
-35.7263
-35.9668
-36.2156
-36.4853
-36.7851
-37.117
-37.477
-37.8567
-38.2465
-45.8083
-45.5144
-45.2887
-45.1393
-45.057
-45.0109
-44.9549
-44.8391
-44.6217
-44.2793
-43.8128
-43.2467
-42.6205
-41.9768
-41.3493
-40.752
-40.1759
-39.5985
-38.9987
-38.3691
-37.7194
-37.0723
-36.4551
-35.8908
-35.3891
-34.9437
-34.5403
-34.1673
-33.8238
-33.5201
-33.2699
-33.0796
-32.9415
-32.8367
-32.7423
-32.6402
-32.5229
-32.3973
-32.2812
-32.1943
-32.1465
-32.1312
-32.1279
-32.1099
-32.0529
-31.9428
-31.7801
-31.5806
-31.3694
-31.1745
-31.018
-30.9099
-30.8454
-30.8122
-30.8004
-30.81
-30.8507
-30.9348
-31.0677
-31.2409
-31.4355
-31.6288
-31.803
-31.9514
-32.0819
-32.2137
-32.3683
-32.558
-32.7791
-33.0153
-33.2453
-33.4524
-33.6309
-33.7905
-33.9523
-34.1398
-34.3666
-34.6293
-34.9107
-35.1886
-35.4449
-35.6737
-35.885
-36.1022
-36.3521
-36.6527
-37.0069
-37.4051
-37.8328
-38.2756
-45.7064
-45.3605
-45.1288
-45.0341
-45.0726
-45.1924
-45.3114
-45.3415
-45.2085
-44.8699
-44.3297
-43.6368
-42.8657
-42.0966
-41.3932
-40.7787
-40.2212
-39.6613
-39.0466
-38.3582
-37.6154
-36.8629
-36.1545
-35.5352
-35.022
-34.5918
-34.2039
-33.8271
-33.4601
-33.1309
-32.8775
-32.7217
-32.6492
-32.6212
-32.5921
-32.5255
-32.4064
-32.2509
-32.1014
-32.0057
-31.9913
-32.0452
-32.126
-32.1819
-32.1659
-32.0494
-31.8336
-31.5483
-31.2411
-30.9636
-30.7577
-30.6391
-30.5878
-30.5678
-30.5521
-30.5403
-30.5585
-30.6419
-30.8096
-31.0465
-31.3137
-31.5661
-31.7675
-31.9035
-31.991
-32.0738
-32.2017
-32.4043
-32.6714
-32.9656
-33.2417
-33.4632
-33.6163
-33.7198
-33.8209
-33.9726
-34.2068
-34.5132
-34.8524
-35.1765
-35.4461
-35.6457
-35.7944
-35.9417
-36.1452
-36.4429
-36.833
-37.2903
-37.7868
-38.3034
-45.4918
-45.0424
-44.7716
-44.7373
-44.9713
-45.375
-45.7962
-46.0788
-46.0916
-45.7511
-45.0667
-44.1396
-43.1081
-42.1223
-41.3093
-40.7234
-40.2702
-39.8032
-39.2009
-38.4257
-37.5258
-36.5903
-35.7258
-35.0271
-34.5356
-34.1794
-33.8515
-33.4731
-33.0422
-32.6329
-32.3447
-32.244
-32.2931
-32.4075
-32.4962
-32.4866
-32.3426
-32.096
-31.8442
-31.7005
-31.738
-31.9206
-32.1604
-32.3575
-32.4236
-32.2996
-31.9871
-31.548
-31.0699
-30.6499
-30.3718
-30.2715
-30.2851
-30.3175
-30.2984
-30.2272
-30.1727
-30.2274
-30.4521
-30.8084
-31.2133
-31.5767
-31.826
-31.9252
-31.9067
-31.869
-31.9275
-32.1577
-32.5244
-32.942
-33.3165
-33.5725
-33.6728
-33.6524
-33.6162
-33.6864
-33.943
-34.3494
-34.8157
-35.2423
-35.548
-35.6909
-35.7054
-35.6997
-35.8023
-36.0998
-36.5622
-37.1186
-37.7118
-38.3256
-45.0978
-44.4674
-44.0741
-44.0544
-44.626
-45.5325
-46.4809
-47.2046
-47.4839
-47.1276
-46.1537
-44.7929
-43.285
-41.8992
-40.8986
-40.4775
-40.3392
-40.1403
-39.6044
-38.6732
-37.4877
-36.2157
-35.0588
-34.2208
-33.8547
-33.7265
-33.5722
-33.195
-32.5934
-31.9609
-31.5424
-31.5511
-31.8432
-32.231
-32.5424
-32.6417
-32.4267
-31.9491
-31.4319
-31.1345
-31.2761
-31.7138
-32.2567
-32.7219
-32.9554
-32.8214
-32.3232
-31.6039
-30.8155
-30.132
-29.7298
-29.7403
-29.9555
-30.1414
-30.1197
-29.8902
-29.6298
-29.5683
-29.905
-30.5003
-31.1728
-31.7515
-32.1008
-32.1164
-31.8502
-31.5255
-31.4059
-31.7144
-32.3039
-32.9802
-33.5619
-33.9057
-33.9026
-33.6078
-33.258
-33.1314
-33.463
-34.0991
-34.836
-35.4821
-35.8837
-35.9205
-35.6453
-35.3016
-35.1781
-35.5187
-36.1558
-36.8933
-37.6069
-38.3217
-44.3822
-43.5512
-42.8387
-42.52
-43.7988
-45.6298
-47.4894
-48.9706
-49.7919
-49.3936
-47.798
-45.6584
-43.2863
-41.1218
-39.6541
-39.8246
-40.4957
-40.9631
-40.5775
-39.2875
-37.5745
-35.6757
-33.9332
-32.7352
-32.8317
-33.3117
-33.6142
-33.2405
-32.1898
-30.9809
-30.1256
-30.4506
-31.2558
-32.1651
-32.8944
-33.2499
-32.8892
-31.86
-30.7035
-29.9368
-30.3882
-31.3561
-32.4655
-33.4204
-34.0168
-33.8679
-32.9784
-31.7597
-30.4107
-29.2093
-28.494
-28.9144
-29.6686
-30.2644
-30.2405
-29.5977
-28.801
-28.3357
-28.9856
-30.0812
-31.2675
-32.2567
-32.8559
-32.7136
-31.8777
-30.8865
-30.2676
-30.8666
-31.9581
-33.1544
-34.1496
-34.7382
-34.5521
-33.6419
-32.5783
-31.916
-32.5443
-33.7033
-34.9867
-36.0734
-36.7441
-36.5988
-35.6832
-34.5856
-33.8852
-34.5102
-35.6041
-36.7021
-37.4998
-38.1855
-42.8122
-42.4643
-41.0365
-38.6854
-42.1764
-45.6859
-49.0432
-51.687
-53.8564
-53.3839
-50.226
-46.8588
-42.989
-39.3414
-36.0504
-38.4512
-40.9459
-43.0146
-42.8532
-40.511
-37.9291
-34.911
-32.0235
-29.3859
-31.2569
-33.1527
-34.6303
-34.2614
-32.014
-29.4919
-27.0094
-28.6589
-30.5187
-32.3587
-33.7853
-34.8896
-34.3148
-31.9545
-29.4139
-26.9854
-28.7569
-30.7948
-32.8969
-34.6354
-36.1519
-35.9813
-34.1078
-32.1032
-29.7934
-27.5867
-25.623
-27.6081
-29.6098
-31.28
-31.2527
-29.5271
-27.4947
-25.4974
-27.4245
-29.5314
-31.646
-33.3233
-34.6787
-34.3096
-32.1286
-29.7115
-27.3756
-29.3093
-31.4612
-33.6179
-35.3225
-36.6861
-36.2442
-33.8967
-31.3203
-28.8419
-30.861
-33.1279
-35.4202
-37.2634
-38.7792
-38.3862
-35.9827
-33.2975
-30.6834
-32.8262
-35.0462
-36.9427
-37.5536
-37.3762
-37.4856
-42.9324
-40.5642
-26.4383
-40.5275
-45.9616
-51.6246
-55.0868
-61.7255
-61.2417
-52.9555
-48.7835
-42.372
-37.0477
-24.2511
-36.9427
-42.01
-48.2778
-48.2695
-42.0802
-38.9123
-33.9587
-29.7543
-19.5447
-29.6465
-33.5962
-38.306
-37.9876
-32.2343
-27.9466
-17.9432
-26.5651
-29.8103
-33.1482
-35.1406
-38.9477
-38.3121
-32.3089
-27.9634
-17.9866
-26.7421
-30.1417
-33.8525
-36.1703
-40.717
-40.5473
-35.4265
-32.8865
-29.028
-25.6143
-17.066
-26.2782
-30.0285
-34.7401
-34.7107
-29.8983
-26.1382
-17.008
-25.6047
-28.9705
-32.6543
-34.8535
-38.9849
-38.5147
-32.7194
-28.4195
-18.335
-27.4377
-30.9574
-34.732
-36.9864
-41.2334
-40.6802
-34.4808
-29.9211
-19.2908
-28.8206
-32.5156
-36.4997
-38.9246
-43.5622
-43.0684
-36.6871
-31.9065
-20.6314
-31.0303
-34.9537
-39.0338
-38.7415
-33.0438
-38.4066
-38.7187
-39.0178
-39.3005
-39.5641
-39.8064
-40.0257
-40.221
-40.3917
-40.5375
-40.6585
-40.7548
-40.8268
-40.8746
-40.8985
-38.4156
-38.7313
-39.0336
-39.3191
-39.585
-39.8289
-40.0492
-40.2451
-40.416
-40.5618
-40.6826
-40.7787
-40.8504
-40.898
-40.9218
-38.4336
-38.7566
-39.0657
-39.3569
-39.6272
-39.8743
-40.0967
-40.2937
-40.465
-40.6106
-40.7309
-40.8265
-40.8976
-40.9448
-40.9684
-38.4608
-38.7955
-39.1151
-39.4151
-39.6921
-39.9439
-40.1692
-40.3675
-40.539
-40.6841
-40.8036
-40.8981
-40.9683
-41.0148
-41.0379
-38.4975
-38.8491
-39.1835
-39.4957
-39.7817
-40.0395
-40.2681
-40.4676
-40.6389
-40.7828
-40.9007
-40.9935
-41.0622
-41.1076
-41.1301
-38.5443
-38.9192
-39.2738
-39.6018
-39.899
-40.1636
-40.3955
-40.5956
-40.7655
-40.9071
-41.0223
-41.1124
-41.1789
-41.2227
-41.2444
-38.6025
-39.009
-39.3903
-39.7382
-40.0485
-40.32
-40.5541
-40.7531
-40.9199
-41.0574
-41.1683
-41.2545
-41.3177
-41.3593
-41.3798
-38.674
-39.1235
-39.5395
-39.9118
-40.2361
-40.5134
-40.7472
-40.9422
-41.103
-41.2339
-41.3383
-41.4189
-41.4778
-41.5163
-41.5353
-38.7627
-39.2711
-39.7322
-40.1328
-40.4705
-40.7498
-40.9786
-41.1648
-41.3155
-41.4363
-41.5316
-41.6046
-41.6577
-41.6923
-41.7093
-38.8749
-39.4657
-39.9849
-40.4165
-40.7629
-41.0366
-41.2522
-41.4225
-41.5572
-41.6636
-41.7466
-41.8098
-41.8555
-41.8852
-41.8998
-39.0207
-39.7315
-40.325
-40.7847
-41.1278
-41.3815
-41.5711
-41.7154
-41.8269
-41.9136
-41.9808
-42.0318
-42.0686
-42.0926
-42.1045
-39.213
-40.1141
-40.7984
-41.2687
-41.5812
-41.7903
-41.9355
-42.041
-42.1208
-42.1825
-42.2306
-42.2673
-42.2941
-42.3117
-42.3204
-39.4702
-40.7125
-41.485
-41.9089
-42.1363
-42.2625
-42.3393
-42.3922
-42.4323
-42.4647
-42.4911
-42.5123
-42.5282
-42.539
-42.5444
-39.8686
-41.7801
-42.5212
-42.7459
-42.791
-42.7833
-42.7672
-42.7559
-42.7514
-42.7522
-42.7563
-42.7617
-42.767
-42.771
-42.7732
-41.0777
-44.0167
-44.0731
-43.7626
-43.4967
-43.3117
-43.1901
-43.1127
-43.0648
-43.0361
-43.0197
-43.0108
-43.0063
-43.0044
-43.0037
-50.3583
-50.3684
-50.3892
-50.4222
-50.4695
-50.5348
-50.6237
-50.7451
-50.9141
-51.1576
-51.5294
-52.1538
-53.3771
-56.3939
-66.1859
-50.5195
-50.5323
-50.5587
-50.6003
-50.6599
-50.742
-50.8534
-51.0053
-51.2158
-51.5176
-51.9723
-52.7088
-54.0204
-56.6129
-62.1038
-50.6719
-50.6868
-50.7176
-50.7658
-50.8347
-50.9288
-51.0551
-51.2246
-51.4543
-51.7713
-52.2195
-52.8646
-53.7741
-54.8193
-54.5135
-50.8139
-50.8304
-50.8643
-50.9172
-50.992
-51.0932
-51.2269
-51.4022
-51.6321
-51.9341
-52.3299
-52.8368
-53.4335
-53.9639
-54.0315
-50.9445
-50.962
-50.9977
-51.0533
-51.1311
-51.235
-51.3697
-51.542
-51.7598
-52.0317
-52.3633
-52.7468
-53.1389
-53.4301
-53.4651
-51.0629
-51.0809
-51.1174
-51.1739
-51.2522
-51.3553
-51.4865
-51.6501
-51.8499
-52.088
-52.3607
-52.6507
-52.9145
-53.0741
-53.0539
-51.1689
-51.1869
-51.2233
-51.2793
-51.3562
-51.456
-51.5809
-51.733
-51.9133
-52.1203
-52.3462
-52.5728
-52.7623
-52.843
-52.6285
-51.2624
-51.2801
-51.3157
-51.3701
-51.4442
-51.5392
-51.6564
-51.7963
-51.9584
-52.1393
-52.3315
-52.5206
-52.6857
-52.8171
-53.0379
-51.3437
-51.3607
-51.3951
-51.4472
-51.5176
-51.6071
-51.7161
-51.8442
-51.9902
-52.1506
-52.319
-52.4849
-52.6326
-52.729
-52.6168
-51.4131
-51.4293
-51.4621
-51.5115
-51.5779
-51.6616
-51.7624
-51.8797
-52.0121
-52.1564
-52.3081
-52.4619
-52.6152
-52.7859
-53.1147
-51.4711
-51.4865
-51.5175
-51.564
-51.6262
-51.704
-51.7972
-51.9049
-52.0256
-52.1569
-52.2959
-52.4393
-52.5855
-52.7331
-52.8442
-51.5184
-51.533
-51.562
-51.6055
-51.6636
-51.7358
-51.8219
-51.9209
-52.0317
-52.1522
-52.2805
-52.4147
-52.5548
-52.7058
-52.8911
-51.5557
-51.5692
-51.5964
-51.637
-51.691
-51.758
-51.8376
-51.9289
-52.0309
-52.1421
-52.261
-52.3861
-52.5164
-52.6545
-52.8269
-51.5834
-51.5961
-51.6214
-51.6592
-51.7094
-51.7715
-51.8451
-51.9294
-52.0237
-52.1267
-52.2372
-52.3538
-52.4727
-52.5794
-52.6041
-51.6023
-51.6141
-51.6377
-51.6729
-51.7194
-51.777
-51.8451
-51.9231
-52.0103
-52.1059
-52.2092
-52.3197
-52.4375
-52.5612
-52.6778
-51.6129
-51.6239
-51.6458
-51.6785
-51.7217
-51.7751
-51.8382
-51.9104
-51.9912
-52.0798
-52.176
-52.2806
-52.3981
-52.5478
-52.8331
-51.6158
-51.626
-51.6464
-51.6768
-51.717
-51.7665
-51.8249
-51.8918
-51.9665
-52.0483
-52.137
-52.2325
-52.3363
-52.4403
-52.434
-51.6115
-51.621
-51.64
-51.6683
-51.7056
-51.7516
-51.8058
-51.8678
-51.9368
-52.0121
-52.0928
-52.1788
-52.2743
-52.4093
-52.7844
-51.6005
-51.6094
-51.6271
-51.6534
-51.6881
-51.7309
-51.7813
-51.8389
-51.9028
-51.972
-52.0449
-52.1183
-52.185
-52.2115
-51.9834
-51.5833
-51.5916
-51.6081
-51.6326
-51.665
-51.7048
-51.7519
-51.8055
-51.8651
-51.9294
-51.9963
-52.0624
-52.1234
-52.1905
-52.4377
-51.5602
-51.568
-51.5834
-51.6063
-51.6365
-51.6738
-51.7178
-51.768
-51.824
-51.8848
-51.9482
-52.0099
-52.0578
-52.0441
-51.7385
-51.5317
-51.5389
-51.5533
-51.5748
-51.6031
-51.638
-51.6793
-51.7266
-51.7797
-51.8381
-51.901
-51.967
-52.0347
-52.1004
-52.1545
-51.498
-51.5048
-51.5183
-51.5384
-51.5649
-51.5977
-51.6365
-51.6812
-51.7318
-51.7883
-51.8512
-51.9228
-52.0131
-52.1647
-52.6093
-51.4595
-51.4659
-51.4786
-51.4974
-51.5224
-51.5531
-51.5897
-51.6318
-51.6798
-51.7338
-51.7951
-51.8657
-51.9489
-52.0254
-51.874
-51.4165
-51.4225
-51.4344
-51.4522
-51.4756
-51.5045
-51.5388
-51.5784
-51.6234
-51.6743
-51.732
-51.7999
-51.8892
-52.0441
-52.5352
-51.3692
-51.3749
-51.3861
-51.4028
-51.4248
-51.4521
-51.4843
-51.5213
-51.5631
-51.6098
-51.6615
-51.7193
-51.784
-51.8291
-51.5796
-51.3178
-51.3232
-51.3338
-51.3496
-51.3704
-51.396
-51.4263
-51.4609
-51.4995
-51.5415
-51.5863
-51.6337
-51.6922
-51.8187
-52.4118
-51.2626
-51.2677
-51.2778
-51.2927
-51.3125
-51.3367
-51.3653
-51.3977
-51.4335
-51.4713
-51.5087
-51.5404
-51.5533
-51.4839
-50.929
-51.2037
-51.2086
-51.2182
-51.2324
-51.2512
-51.2744
-51.3015
-51.3323
-51.366
-51.4012
-51.4346
-51.4602
-51.4716
-51.4859
-51.7914
-51.1413
-51.1459
-51.1552
-51.1688
-51.1869
-51.209
-51.2352
-51.2649
-51.2976
-51.332
-51.3652
-51.3899
-51.3877
-51.2856
-50.7271
-51.0755
-51.08
-51.0888
-51.102
-51.1194
-51.1409
-51.1663
-51.1954
-51.228
-51.2636
-51.301
-51.3382
-51.3733
-51.402
-51.4178
-51.0064
-51.0108
-51.0194
-51.0321
-51.049
-51.0699
-51.0947
-51.1235
-51.1564
-51.1938
-51.2364
-51.2878
-51.3632
-51.5271
-52.1218
-50.9342
-50.9384
-50.9467
-50.9592
-50.9756
-50.996
-51.0204
-51.0488
-51.0817
-51.1199
-51.1651
-51.2206
-51.2918
-51.3527
-51.0921
-50.8588
-50.8629
-50.8711
-50.8833
-50.8994
-50.9193
-50.9431
-50.971
-51.0033
-51.0411
-51.0859
-51.1427
-51.2274
-51.4011
-52.0329
-50.7804
-50.7844
-50.7924
-50.8044
-50.8202
-50.8398
-50.8631
-50.8902
-50.9213
-50.9569
-50.9977
-51.0452
-51.1014
-51.131
-50.7645
-50.6989
-50.7029
-50.7109
-50.7226
-50.7382
-50.7574
-50.7803
-50.8066
-50.8363
-50.869
-50.904
-50.9416
-50.9937
-51.1357
-51.8948
-50.6145
-50.6185
-50.6263
-50.638
-50.6535
-50.6725
-50.695
-50.7207
-50.7492
-50.7792
-50.8076
-50.8279
-50.8235
-50.7114
-49.9629
-50.5271
-50.5311
-50.5389
-50.5506
-50.566
-50.585
-50.6074
-50.633
-50.6611
-50.6901
-50.7161
-50.7314
-50.7282
-50.7288
-51.106
-50.4368
-50.4407
-50.4486
-50.4603
-50.4758
-50.4949
-50.5176
-50.5436
-50.5725
-50.6029
-50.631
-50.6477
-50.63
-50.4843
-49.7529
-50.3434
-50.3474
-50.3553
-50.3671
-50.3828
-50.4022
-50.4254
-50.4523
-50.483
-50.5169
-50.5528
-50.5879
-50.6208
-50.646
-50.6563
-50.2471
-50.2511
-50.2591
-50.271
-50.2869
-50.3067
-50.3305
-50.3585
-50.3912
-50.4293
-50.474
-50.5297
-50.6168
-50.8177
-51.57
-50.1477
-50.1517
-50.1598
-50.172
-50.1881
-50.2082
-50.2326
-50.2615
-50.2958
-50.3368
-50.3866
-50.4498
-50.5338
-50.6059
-50.2703
-50.0452
-50.0493
-50.0575
-50.0698
-50.0862
-50.1067
-50.1314
-50.1609
-50.1958
-50.2377
-50.2888
-50.3555
-50.4589
-50.6768
-51.48
-49.9395
-49.9437
-49.9521
-49.9645
-49.9811
-50.0019
-50.0269
-50.0565
-50.0912
-50.1317
-50.1791
-50.2357
-50.3044
-50.3409
-49.8746
-49.8307
-49.835
-49.8435
-49.8561
-49.873
-49.894
-49.9192
-49.9487
-49.9826
-50.0206
-50.062
-50.1074
-50.1723
-50.3536
-51.3254
-49.7187
-49.723
-49.7316
-49.7445
-49.7616
-49.7829
-49.8084
-49.838
-49.8712
-49.9068
-49.941
-49.9654
-49.9594
-49.8169
-48.8615
-49.6033
-49.6077
-49.6165
-49.6296
-49.647
-49.6688
-49.6948
-49.7248
-49.7583
-49.7935
-49.8254
-49.8447
-49.8413
-49.8442
-50.3311
-49.4846
-49.4891
-49.498
-49.5114
-49.5292
-49.5515
-49.5782
-49.6093
-49.6444
-49.682
-49.7175
-49.7396
-49.7187
-49.5348
-48.5995
-49.3625
-49.367
-49.3761
-49.3898
-49.408
-49.4308
-49.4584
-49.4911
-49.5289
-49.5716
-49.6177
-49.6642
-49.7094
-49.7466
-49.7657
-49.2369
-49.2415
-49.2507
-49.2646
-49.2832
-49.3066
-49.3352
-49.3694
-49.41
-49.4584
-49.5163
-49.5898
-49.7056
-49.9703
-50.9492
-49.1077
-49.1124
-49.1218
-49.1358
-49.1547
-49.1786
-49.2079
-49.2433
-49.286
-49.3381
-49.4027
-49.4862
-49.5983
-49.6975
-49.2703
-48.975
-48.9797
-48.9892
-49.0034
-49.0225
-49.0467
-49.0763
-49.1122
-49.1556
-49.2086
-49.2747
-49.3625
-49.5001
-49.7895
-50.8454
-48.8386
-48.8434
-48.8529
-48.8672
-48.8864
-48.9107
-48.9403
-48.976
-49.0186
-49.0694
-49.1303
-49.2044
-49.2964
-49.3487
-48.7467
-48.6986
-48.7034
-48.7129
-48.7272
-48.7464
-48.7706
-48.8001
-48.8351
-48.876
-48.9229
-48.9751
-49.0339
-49.1201
-49.3617
-50.6457
-48.555
-48.5597
-48.5692
-48.5835
-48.6026
-48.6267
-48.6559
-48.6902
-48.7295
-48.7722
-48.814
-48.8442
-48.836
-48.6503
-47.3968
-48.4077
-48.4124
-48.4218
-48.436
-48.455
-48.479
-48.508
-48.5421
-48.5807
-48.6217
-48.6593
-48.6813
-48.6752
-48.6796
-49.3261
-48.2568
-48.2614
-48.2707
-48.2848
-48.3037
-48.3275
-48.3565
-48.3909
-48.4303
-48.4732
-48.5139
-48.538
-48.5069
-48.2625
-47.0272
-48.1022
-48.1068
-48.116
-48.1298
-48.1484
-48.1721
-48.2013
-48.2363
-48.2777
-48.3256
-48.3784
-48.4329
-48.4869
-48.5326
-48.5571
-47.9441
-47.9486
-47.9575
-47.9711
-47.9894
-48.0128
-48.0418
-48.0774
-48.1208
-48.1741
-48.2403
-48.328
-48.4728
-48.8166
-50.1089
-47.7826
-47.7869
-47.7955
-47.8086
-47.8264
-47.8492
-47.8777
-47.9131
-47.9572
-48.0132
-48.0857
-48.1836
-48.3203
-48.4413
-47.8684
-47.6176
-47.6217
-47.63
-47.6425
-47.6595
-47.6813
-47.7087
-47.7428
-47.7856
-47.8402
-47.9117
-48.0122
-48.1788
-48.5471
-49.9298
-47.4494
-47.4533
-47.4611
-47.4729
-47.4888
-47.5094
-47.535
-47.5667
-47.6059
-47.6548
-47.7161
-47.7949
-47.8972
-47.9476
-47.136
-47.2781
-47.2817
-47.2889
-47.2999
-47.3147
-47.3336
-47.357
-47.3855
-47.4198
-47.4602
-47.5066
-47.5612
-47.6517
-47.9459
-49.6042
-47.1039
-47.1072
-47.1138
-47.1238
-47.1372
-47.1543
-47.1753
-47.2005
-47.2295
-47.261
-47.2896
-47.3025
-47.2649
-46.9961
-45.336
-46.9271
-46.93
-46.9359
-46.9448
-46.9568
-46.972
-46.9907
-47.0128
-47.0378
-47.0632
-47.0819
-47.079
-47.0386
-47.0117
-47.8135
-46.7477
-46.7503
-46.7555
-46.7632
-46.7737
-46.7871
-46.8036
-46.8233
-46.8459
-46.8696
-46.8873
-46.8814
-46.8029
-46.451
-44.8343
-46.5662
-46.5684
-46.5727
-46.5793
-46.5882
-46.5997
-46.6141
-46.6318
-46.6536
-46.6794
-46.7075
-46.7341
-46.7571
-46.7679
-46.7567
-46.3827
-46.3845
-46.388
-46.3934
-46.4006
-46.41
-46.4221
-46.4378
-46.4586
-46.487
-46.5269
-46.5894
-46.7198
-47.0992
-48.6768
-46.1976
-46.1989
-46.2016
-46.2056
-46.211
-46.2181
-46.2275
-46.2403
-46.2586
-46.2861
-46.3287
-46.3977
-46.5096
-46.5975
-45.8201
-46.0111
-46.012
-46.0138
-46.0164
-46.0198
-46.0244
-46.0304
-46.0391
-46.0524
-46.0741
-46.1104
-46.176
-46.3161
-46.6957
-48.3072
-45.8236
-45.824
-45.8249
-45.8261
-45.8275
-45.8292
-45.8314
-45.8348
-45.8406
-45.8513
-45.8699
-45.9027
-45.9562
-45.9377
-44.8713
-45.6353
-45.6353
-45.6353
-45.6352
-45.6346
-45.6334
-45.6315
-45.6289
-45.6258
-45.6222
-45.6177
-45.615
-45.6464
-45.9065
-47.7482
-45.4465
-45.4462
-45.4454
-45.444
-45.4416
-45.4377
-45.4319
-45.4235
-45.4115
-45.3933
-45.3623
-45.3037
-45.1777
-44.7762
-42.7634
-45.2574
-45.2569
-45.2555
-45.2531
-45.2492
-45.2431
-45.234
-45.2209
-45.2017
-45.1725
-45.1241
-45.0393
-44.9003
-44.764
-45.5329
-45.0684
-45.0676
-45.0659
-45.0628
-45.0578
-45.0502
-45.0389
-45.0226
-44.9991
-44.9645
-44.9092
-44.8124
-44.6212
-44.1222
-42.2573
-44.8794
-44.8786
-44.8767
-44.8734
-44.8679
-44.8595
-44.8471
-44.8293
-44.8045
-44.7702
-44.7213
-44.6511
-44.5557
-44.4281
-44.2774
-44.6905
-44.6897
-44.688
-44.6849
-44.6796
-44.6713
-44.6589
-44.6411
-44.6169
-44.5852
-44.5462
-44.5073
-44.5125
-44.7493
-46.1987
-44.5017
-44.5012
-44.4999
-44.4974
-44.4929
-44.4856
-44.4742
-44.4575
-44.4345
-44.4048
-44.3691
-44.333
-44.3084
-44.2274
-43.2732
-44.3127
-44.3126
-44.3121
-44.3108
-44.3079
-44.3024
-44.2931
-44.2786
-44.2572
-44.2278
-44.1902
-44.1508
-44.1435
-44.3109
-45.5504
-44.1235
-44.1238
-44.1244
-44.1247
-44.1241
-44.1215
-44.1156
-44.1045
-44.0856
-44.0558
-44.0107
-43.9463
-43.8573
-43.6489
-42.4691
-43.9335
-43.9345
-43.9364
-43.9388
-43.9412
-43.9426
-43.9416
-43.9359
-43.9218
-43.8937
-43.8426
-43.7589
-43.6542
-43.6605
-44.7996
-43.7423
-43.744
-43.7475
-43.7524
-43.7585
-43.7651
-43.7708
-43.7733
-43.768
-43.747
-43.6949
-43.5862
-43.3739
-42.8846
-41.1357
-43.5494
-43.552
-43.5571
-43.5648
-43.5751
-43.5878
-43.6022
-43.6162
-43.6255
-43.6211
-43.5847
-43.4855
-43.286
-42.9825
-43.0546
-43.3544
-43.3576
-43.3643
-43.3748
-43.3896
-43.4091
-43.4336
-43.4625
-43.4928
-43.5167
-43.5159
-43.4546
-43.2704
-42.8187
-41.5918
-43.1566
-43.1604
-43.1685
-43.1814
-43.2003
-43.2266
-43.262
-43.3079
-43.3648
-43.4289
-43.4871
-43.509
-43.4405
-43.1921
-42.7208
-42.9557
-42.9598
-42.9687
-42.9833
-43.0054
-43.0374
-43.0828
-43.146
-43.232
-43.3445
-43.4815
-43.6261
-43.7355
-43.7196
-43.5284
-42.7514
-42.7555
-42.7645
-42.7796
-42.8031
-42.8386
-42.8912
-42.9684
-43.0809
-43.2425
-43.4685
-43.7678
-44.1176
-44.3678
-44.1497
-42.5438
-42.5475
-42.5555
-42.5695
-42.5922
-42.6276
-42.6824
-42.7665
-42.8959
-43.0952
-43.4025
-43.8743
-44.5689
-45.3405
-44.6849
-42.3332
-42.3359
-42.3419
-42.353
-42.3719
-42.4029
-42.453
-42.5334
-42.6625
-42.8721
-43.2201
-43.8263
-44.9668
-47.3033
-52.4457
-42.1203
-42.1214
-42.1244
-42.1307
-42.1427
-42.1645
-42.2024
-42.2666
-42.3735
-42.5521
-42.8565
-43.4074
-44.5343
-47.3166
-56.1086
-57.7072
-48.7083
-45.8321
-44.6537
-44.0677
-43.7369
-43.5372
-43.4127
-43.3343
-43.2847
-43.2536
-43.2344
-43.2229
-43.2165
-43.2137
-54.3263
-48.7205
-46.2524
-45.0523
-44.4078
-44.0319
-43.8005
-43.6537
-43.559
-43.4975
-43.4576
-43.4319
-43.4158
-43.4065
-43.4022
-45.5651
-46.5527
-45.7926
-45.065
-44.5598
-44.2257
-44.005
-43.8585
-43.7607
-43.6951
-43.6512
-43.6222
-43.6035
-43.5925
-43.5873
-45.4024
-45.5976
-45.3105
-44.9231
-44.5914
-44.34
-44.1582
-44.0297
-43.9399
-43.8774
-43.8342
-43.8048
-43.7856
-43.7739
-43.7684
-45.1099
-44.9765
-44.8985
-44.7423
-44.5655
-44.4051
-44.2744
-44.1743
-44.0999
-44.0459
-44.0071
-43.98
-43.9618
-43.9506
-43.9453
-43.675
-44.3161
-44.5411
-44.5755
-44.5266
-44.4487
-44.3695
-44.301
-44.2459
-44.2034
-44.1716
-44.1486
-44.1327
-44.1228
-44.118
-43.0412
-43.9436
-44.3165
-44.4664
-44.5062
-44.4924
-44.4574
-44.4185
-44.3829
-44.3531
-44.3295
-44.3117
-44.299
-44.2909
-44.287
-43.7842
-43.9379
-44.2471
-44.4335
-44.5214
-44.5499
-44.5482
-44.5339
-44.5159
-44.4983
-44.4831
-44.4708
-44.4617
-44.4557
-44.4527
-42.4283
-43.8234
-44.2632
-44.4688
-44.5761
-44.6277
-44.6479