/*--------------------------------*- C++ -*----------------------------------*\
| =========                 |                                                 |
| \\      /  F ield         | OpenFOAM: The Open Source CFD Toolbox           |
|  \\    /   O peration     | Version:  5.x                                   |
|   \\  /    A nd           | Web:      www.OpenFOAM.org                      |
|    \\/     M anipulation  |                                                 |
\*---------------------------------------------------------------------------*/
FoamFile
{
    version     2.0;
    format      ascii;
    class       volScalarField;
    location    "3.4";
    object      T;
}
// * * * * * * * * * * * * * * * * * * * * * * * * * * * * * * * * * * * * * //

dimensions      [0 0 0 1 0 0 0];

internalField   nonuniform List<scalar> 
6300
(
322.759
322.277
321.795
321.314
320.834
320.355
319.877
319.4
318.925
318.452
317.981
317.513
317.047
316.583
316.122
322.759
322.277
321.795
321.314
320.833
320.354
319.875
319.399
318.923
318.45
317.979
317.51
317.044
316.58
316.119
322.759
322.276
321.794
321.312
320.831
320.351
319.872
319.395
318.92
318.446
317.974
317.505
317.039
316.575
316.114
322.758
322.275
321.792
321.31
320.828
320.348
319.868
319.39
318.914
318.44
317.967
317.498
317.031
316.566
316.105
322.758
322.274
321.79
321.307
320.824
320.343
319.862
319.383
318.906
318.431
317.958
317.488
317.02
316.555
316.093
322.757
322.272
321.787
321.303
320.819
320.336
319.855
319.375
318.897
318.42
317.946
317.475
317.006
316.54
316.078
322.757
322.27
321.784
321.298
320.813
320.329
319.846
319.365
318.885
318.407
317.932
317.459
316.989
316.523
316.06
322.756
322.268
321.78
321.293
320.806
320.321
319.836
319.353
318.871
318.392
317.914
317.44
316.969
316.502
316.038
322.755
322.266
321.776
321.287
320.799
320.311
319.824
319.339
318.855
318.374
317.894
317.418
316.946
316.477
316.013
322.754
322.263
321.772
321.281
320.79
320.3
319.812
319.324
318.837
318.353
317.871
317.393
316.918
316.448
315.983
322.753
322.26
321.767
321.274
320.781
320.289
319.797
319.307
318.818
318.33
317.845
317.363
316.885
316.413
315.948
322.752
322.257
321.761
321.266
320.771
320.277
319.783
319.289
318.796
318.305
317.816
317.329
316.847
316.371
315.905
322.751
322.254
321.756
321.259
320.761
320.264
319.767
319.27
318.774
318.278
317.783
317.291
316.802
316.32
315.852
322.75
322.251
321.751
321.251
320.751
320.251
319.751
319.251
318.75
318.249
317.749
317.248
316.75
316.257
315.779
322.749
322.247
321.746
321.244
320.741
320.239
319.735
319.232
318.727
318.221
317.714
317.204
316.692
316.178
315.672
315.703
315.323
314.946
314.571
314.199
313.829
313.461
313.096
312.734
312.375
312.019
311.666
311.316
310.97
310.628
310.289
309.954
309.623
309.295
308.972
308.652
308.335
308.023
307.714
307.408
307.106
306.807
306.51
306.217
305.926
305.638
305.351
305.067
304.785
304.505
304.226
303.949
303.673
303.399
303.126
302.854
302.583
302.312
302.043
301.775
301.507
301.24
300.974
300.709
300.443
300.179
299.914
299.65
299.386
299.122
298.858
298.594
298.329
298.064
297.798
297.531
297.264
296.996
296.726
296.456
296.184
295.912
295.637
295.362
295.085
294.806
294.526
294.245
293.961
293.676
293.389
293.1
292.81
292.517
292.223
291.926
291.628
291.327
291.024
290.719
290.412
290.102
289.79
289.476
289.159
315.7
315.32
314.943
314.568
314.195
313.825
313.457
313.092
312.73
312.37
312.014
311.661
311.311
310.965
310.622
310.283
309.948
309.617
309.29
308.966
308.646
308.33
308.018
307.709
307.404
307.101
306.802
306.506
306.213
305.922
305.634
305.348
305.065
304.783
304.503
304.224
303.947
303.671
303.397
303.124
302.852
302.581
302.311
302.042
301.774
301.506
301.239
300.973
300.708
300.443
300.178
299.914
299.65
299.386
299.122
298.858
298.594
298.33
298.065
297.799
297.533
297.265
296.997
296.728
296.458
296.186
295.913
295.639
295.364
295.087
294.808
294.528
294.247
293.963
293.678
293.392
293.103
292.813
292.52
292.226
291.929
291.631
291.33
291.027
290.722
290.415
290.105
289.793
289.479
289.163
315.694
315.314
314.936
314.561
314.188
313.818
313.449
313.084
312.721
312.361
312.005
311.651
311.301
310.954
310.612
310.273
309.937
309.606
309.279
308.955
308.635
308.32
308.007
307.699
307.394
307.092
306.794
306.498
306.205
305.915
305.628
305.342
305.059
304.777
304.498
304.219
303.943
303.668
303.394
303.121
302.849
302.578
302.308
302.039
301.771
301.504
301.237
300.971
300.706
300.441
300.177
299.913
299.649
299.386
299.122
298.859
298.595
298.331
298.066
297.801
297.535
297.268
297
296.731
296.461
296.189
295.917
295.643
295.368
295.091
294.813
294.533
294.251
293.968
293.683
293.397
293.108
292.818
292.526
292.231
291.935
291.637
291.336
291.033
290.728
290.421
290.112
289.8
289.486
289.169
315.684
315.305
314.927
314.551
314.178
313.807
313.438
313.072
312.708
312.348
311.99
311.636
311.286
310.939
310.595
310.256
309.921
309.589
309.262
308.938
308.619
308.304
307.992
307.684
307.379
307.078
306.781
306.486
306.194
305.904
305.618
305.333
305.05
304.769
304.49
304.213
303.937
303.662
303.388
303.116
302.844
302.574
302.304
302.035
301.767
301.5
301.234
300.968
300.703
300.439
300.175
299.912
299.648
299.385
299.123
298.86
298.596
298.333
298.068
297.803
297.538
297.271
297.004
296.735
296.465
296.194
295.922
295.649
295.374
295.097
294.819
294.539
294.258
293.975
293.691
293.404
293.116
292.826
292.534
292.24
291.944
291.645
291.345
291.043
290.738
290.431
290.121
289.809
289.495
289.179
315.672
315.292
314.914
314.538
314.164
313.792
313.423
313.056
312.691
312.33
311.971
311.616
311.265
310.917
310.574
310.234
309.898
309.567
309.239
308.916
308.597
308.282
307.971
307.664
307.36
307.06
306.763
306.469
306.178
305.89
305.604
305.321
305.039
304.759
304.481
304.204
303.928
303.654
303.381
303.109
302.838
302.568
302.299
302.03
301.762
301.495
301.229
300.964
300.699
300.436
300.172
299.909
299.647
299.385
299.123
298.86
298.598
298.335
298.071
297.807
297.542
297.276
297.009
296.741
296.472
296.201
295.929
295.656
295.381
295.105
294.828
294.548
294.267
293.985
293.7
293.414
293.126
292.836
292.545
292.251
291.955
291.657
291.357
291.055
290.75
290.444
290.134
289.823
289.508
289.192
315.657
315.276
314.898
314.521
314.147
313.774
313.404
313.036
312.67
312.307
311.948
311.591
311.239
310.89
310.546
310.206
309.87
309.538
309.211
308.888
308.569
308.255
307.944
307.638
307.336
307.037
306.741
306.449
306.159
305.872
305.588
305.305
305.025
304.746
304.469
304.193
303.918
303.645
303.372
303.101
302.83
302.561
302.292
302.024
301.756
301.489
301.224
300.959
300.695
300.431
300.169
299.907
299.645
299.384
299.123
298.861
298.6
298.338
298.075
297.812
297.548
297.282
297.016
296.748
296.48
296.21
295.938
295.666
295.391
295.116
294.838
294.559
294.279
293.996
293.712
293.427
293.139
292.85
292.558
292.265
291.97
291.672
291.372
291.07
290.766
290.46
290.151
289.839
289.525
289.208
315.638
315.258
314.879
314.502
314.127
313.754
313.382
313.012
312.645
312.28
311.919
311.561
311.207
310.857
310.512
310.171
309.835
309.503
309.176
308.853
308.535
308.221
307.912
307.607
307.306
307.009
306.715
306.424
306.136
305.851
305.568
305.287
305.008
304.731
304.455
304.18
303.906
303.633
303.362
303.091
302.821
302.552
302.284
302.016
301.749
301.482
301.217
300.952
300.688
300.426
300.164
299.903
299.643
299.383
299.123
298.863
298.602
298.342
298.08
297.818
297.555
297.29
297.024
296.757
296.489
296.22
295.949
295.677
295.403
295.128
294.851
294.572
294.292
294.01
293.727
293.442
293.155
292.866
292.575
292.282
291.987
291.69
291.391
291.089
290.786
290.48
290.171
289.86
289.546
289.229
315.617
315.236
314.857
314.48
314.105
313.73
313.357
312.986
312.616
312.249
311.885
311.525
311.169
310.818
310.472
310.13
309.794
309.462
309.134
308.812
308.494
308.181
307.873
307.57
307.271
306.975
306.684
306.395
306.109
305.826
305.545
305.266
304.989
304.713
304.439
304.165
303.892
303.621
303.35
303.08
302.811
302.543
302.275
302.007
301.74
301.473
301.208
300.944
300.681
300.419
300.159
299.899
299.64
299.381
299.123
298.864
298.606
298.346
298.086
297.825
297.563
297.299
297.034
296.768
296.5
296.232
295.962
295.69
295.417
295.143
294.866
294.588
294.308
294.027
293.744
293.459
293.173
292.885
292.594
292.302
292.007
291.71
291.412
291.111
290.808
290.503
290.195
289.884
289.57
289.253
315.592
315.211
314.833
314.456
314.081
313.705
313.33
312.956
312.583
312.212
311.845
311.482
311.124
310.772
310.425
310.083
309.746
309.413
309.086
308.763
308.446
308.135
307.828
307.527
307.23
306.937
306.648
306.361
306.078
305.798
305.52
305.243
304.968
304.694
304.421
304.148
303.877
303.606
303.337
303.068
302.8
302.533
302.265
301.997
301.73
301.463
301.197
300.933
300.671
300.41
300.151
299.894
299.636
299.379
299.123
298.866
298.609
298.352
298.094
297.834
297.573
297.31
297.046
296.78
296.513
296.245
295.976
295.706
295.434
295.16
294.884
294.606
294.326
294.045
293.763
293.479
293.194
292.906
292.617
292.325
292.03
291.734
291.436
291.136
290.834
290.53
290.223
289.913
289.6
289.283
315.562
315.183
314.806
314.431
314.056
313.68
313.303
312.925
312.547
312.171
311.799
311.432
311.072
310.718
310.37
310.028
309.691
309.358
309.03
308.707
308.39
308.08
307.776
307.477
307.184
306.894
306.607
306.324
306.043
305.766
305.491
305.218
304.946
304.674
304.402
304.131
303.86
303.591
303.323
303.056
302.789
302.522
302.255
301.987
301.719
301.451
301.184
300.92
300.659
300.4
300.143
299.887
299.632
299.377
299.123
298.868
298.613
298.359
298.103
297.845
297.585
297.323
297.059
296.794
296.528
296.261
295.993
295.724
295.453
295.179
294.903
294.625
294.346
294.065
293.784
293.501
293.218
292.931
292.642
292.35
292.056
291.76
291.462
291.163
290.863
290.561
290.256
289.947
289.634
289.317
315.529
315.152
314.778
314.406
314.032
313.656
313.276
312.893
312.508
312.125
311.746
311.373
311.01
310.655
310.308
309.966
309.629
309.295
308.966
308.642
308.325
308.017
307.715
307.421
307.132
306.846
306.562
306.281
306.004
305.731
305.46
305.192
304.923
304.653
304.383
304.112
303.841
303.573
303.306
303.042
302.778
302.513
302.246
301.977
301.707
301.437
301.168
300.903
300.643
300.386
300.132
299.879
299.627
299.375
299.122
298.87
298.618
298.367
298.114
297.859
297.601
297.339
297.075
296.809
296.543
296.277
296.011
295.745
295.475
295.203
294.926
294.647
294.367
294.086
293.806
293.526
293.245
292.96
292.672
292.38
292.085
291.787
291.49
291.192
290.895
290.596
290.293
289.986
289.675
289.358
315.488
315.116
314.747
314.381
314.013
313.638
313.254
312.863
312.467
312.071
311.682
311.302
310.935
310.581
310.237
309.899
309.562
309.227
308.893
308.567
308.249
307.942
307.645
307.358
307.075
306.793
306.513
306.234
305.96
305.691
305.427
305.165
304.901
304.634
304.364
304.092
303.82
303.551
303.287
303.028
302.768
302.506
302.24
301.969
301.695
301.419
301.147
300.881
300.621
300.367
300.119
299.872
299.623
299.372
299.121
298.87
298.622
298.377
298.13
297.878
297.621
297.359
297.092
296.824
296.557
296.293
296.031
295.769
295.503
295.231
294.953
294.671
294.388
294.106
293.828
293.552
293.276
292.994
292.707
292.414
292.116
291.816
291.517
291.222
290.929
290.635
290.337
290.033
289.722
289.406
315.439
315.074
314.713
314.36
314.004
313.63
313.244
312.839
312.427
312.009
311.604
311.212
310.843
310.491
310.158
309.83
309.494
309.155
308.811
308.479
308.157
307.853
307.562
307.287
307.016
306.74
306.461
306.18
305.907
305.643
305.391
305.141
304.883
304.62
304.347
304.072
303.793
303.524
303.262
303.012
302.763
302.505
302.241
301.964
301.684
301.397
301.119
300.848
300.59
300.341
300.103
299.866
299.621
299.372
299.117
298.868
298.623
298.388
298.151
297.904
297.65
297.383
297.112
296.836
296.567
296.304
296.052
295.8
295.538
295.267
294.985
294.698
294.406
294.122
293.845
293.579
293.313
293.037
292.752
292.454
292.151
291.841
291.541
291.247
290.964
290.682
290.389
290.089
289.777
289.464
315.373
315.029
314.665
314.345
314.02
313.642
313.259
312.824
312.398
311.927
311.508
311.09
310.727
310.373
310.071
309.772
309.43
309.09
308.713
308.376
308.038
307.744
307.456
307.21
306.967
306.689
306.414
306.112
305.843
305.578
305.351
305.128
304.874
304.619
304.334
304.056
303.753
303.484
303.22
302.994
302.771
302.515
302.257
301.967
301.68
301.364
301.08
300.796
300.545
300.299
300.086
299.872
299.626
299.379
299.104
298.858
298.612
298.399
298.187
297.942
297.695
297.415
297.14
296.837
296.568
296.301
296.073
295.845
295.584
295.321
295.024
294.732
294.412
294.128
293.847
293.606
293.367
293.092
292.815
292.501
292.193
291.855
291.554
291.255
290.999
290.744
290.452
290.16
289.836
289.534
315.271
315.011
314.555
314.335
314.115
313.66
313.349
312.799
312.43
311.771
311.41
310.888
310.597
310.182
309.979
309.778
309.364
309.077
308.559
308.273
307.858
307.624
307.292
307.128
306.966
306.634
306.406
305.996
305.773
305.459
305.307
305.16
304.864
304.663
304.312
304.077
303.663
303.439
303.124
302.972
302.824
302.527
302.322
301.963
301.719
301.284
301.043
300.694
300.495
300.21
300.068
299.925
299.63
299.425
299.051
298.846
298.553
298.411
298.27
297.984
297.787
297.44
297.206
296.79
296.564
296.245
296.09
295.939
295.633
295.423
295.054
294.807
294.367
294.129
293.792
293.63
293.471
293.15
292.929
292.541
292.28
291.815
291.562
291.204
291.031
290.86
290.513
290.277
289.863
289.632
288.809
288.423
288.034
287.643
287.248
286.851
286.452
286.051
285.648
285.243
284.837
284.43
284.022
283.613
283.205
288.812
288.426
288.037
287.645
287.251
286.854
286.454
286.053
285.649
285.244
284.838
284.431
284.023
283.614
283.205
288.818
288.432
288.043
287.651
287.256
286.858
286.458
286.056
285.653
285.247
284.84
284.432
284.024
283.614
283.205
288.828
288.441
288.052
287.659
287.263
286.865
286.465
286.062
285.657
285.251
284.843
284.435
284.026
283.616
283.205
288.84
288.454
288.063
287.67
287.273
286.874
286.473
286.069
285.663
285.256
284.848
284.438
284.028
283.617
283.206
288.857
288.469
288.078
287.684
287.286
286.886
286.483
286.078
285.671
285.263
284.853
284.442
284.031
283.619
283.206
288.877
288.489
288.097
287.701
287.302
286.9
286.495
286.089
285.68
285.27
284.859
284.447
284.034
283.621
283.207
288.901
288.512
288.118
287.721
287.32
286.916
286.51
286.101
285.691
285.279
284.866
284.453
284.038
283.623
283.208
288.93
288.539
288.144
287.745
287.342
286.935
286.527
286.116
285.703
285.289
284.875
284.459
284.042
283.626
283.209
288.964
288.572
288.174
287.772
287.366
286.957
286.545
286.132
285.717
285.301
284.883
284.466
284.047
283.628
283.21
289.004
288.61
288.209
287.803
287.393
286.981
286.566
286.149
285.731
285.313
284.893
284.473
284.052
283.632
283.211
289.051
288.654
288.249
287.838
287.423
287.006
286.588
286.168
285.747
285.325
284.903
284.481
284.058
283.635
283.212
289.109
288.706
288.294
287.877
287.456
287.034
286.611
286.187
285.763
285.339
284.914
284.489
284.064
283.638
283.213
289.181
288.769
288.345
287.918
287.49
287.062
286.635
286.207
285.78
285.352
284.925
284.497
284.069
283.642
283.214
289.28
288.842
288.4
287.961
287.525
287.091
286.658
286.227
285.796
285.366
284.935
284.505
284.075
283.645
283.215
322.748
322.245
321.741
321.237
320.732
320.227
319.722
319.215
318.707
318.197
317.684
317.166
316.641
316.099
315.513
322.747
322.242
321.737
321.231
320.725
320.218
319.71
319.201
318.69
318.176
317.659
317.137
316.605
316.057
315.473
322.747
322.24
321.733
321.226
320.718
320.209
319.699
319.188
318.675
318.159
317.639
317.114
316.582
316.039
315.485
322.746
322.238
321.729
321.22
320.711
320.201
319.689
319.176
318.661
318.143
317.622
317.097
316.566
316.028
315.486
322.745
322.236
321.726
321.216
320.705
320.193
319.68
319.166
318.649
318.131
317.609
317.083
316.554
316.021
315.485
322.745
322.234
321.723
321.212
320.7
320.187
319.673
319.157
318.64
318.12
317.598
317.073
316.545
316.014
315.483
322.744
322.232
321.72
321.208
320.695
320.181
319.666
319.149
318.631
318.111
317.589
317.064
316.537
316.009
315.48
322.744
322.231
321.718
321.205
320.691
320.176
319.66
319.143
318.624
318.104
317.581
317.057
316.531
316.003
315.474
322.743
322.23
321.716
321.202
320.687
320.172
319.655
319.137
318.618
318.097
317.575
317.051
316.525
315.998
315.471
322.743
322.229
321.714
321.2
320.684
320.168
319.651
319.133
318.613
318.092
317.57
317.046
316.521
315.994
315.465
322.743
322.228
321.713
321.198
320.682
320.165
319.648
319.129
318.609
318.089
317.566
317.043
316.518
315.991
315.463
322.742
322.227
321.712
321.196
320.68
320.163
319.645
319.126
318.607
318.086
317.563
317.04
316.515
315.989
315.461
322.742
322.227
321.711
321.195
320.678
320.161
319.643
319.124
318.604
318.084
317.562
317.038
316.514
315.988
315.461
322.742
322.226
321.71
321.194
320.677
320.16
319.642
319.123
318.603
318.082
317.56
317.037
316.513
315.988
315.462
322.742
322.226
321.71
321.193
320.676
320.159
319.641
319.122
318.602
318.082
317.56
317.038
316.514
315.989
315.463
322.742
322.226
321.709
321.193
320.676
320.158
319.64
319.122
318.602
318.082
317.561
317.038
316.515
315.99
315.464
322.742
322.226
321.709
321.193
320.676
320.158
319.641
319.122
318.603
318.083
317.562
317.04
316.517
315.993
315.468
322.742
322.226
321.71
321.193
320.676
320.159
319.641
319.123
318.604
318.084
317.564
317.042
316.52
315.997
315.472
322.742
322.226
321.71
321.193
320.677
320.16
319.642
319.124
318.605
318.086
317.566
317.045
316.524
316.001
315.479
322.742
322.226
321.71
321.194
320.678
320.161
319.644
319.126
318.607
318.088
317.569
317.049
316.528
316.006
315.484
322.742
322.227
321.711
321.195
320.679
320.162
319.645
319.128
318.61
318.091
317.572
317.052
316.532
316.011
315.491
322.742
322.227
321.712
321.196
320.68
320.164
319.647
319.13
318.613
318.095
317.576
317.057
316.537
316.016
315.495
322.743
322.228
321.712
321.197
320.682
320.166
319.65
319.133
318.616
318.098
317.58
317.061
316.542
316.021
315.499
322.743
322.228
321.713
321.199
320.683
320.168
319.652
319.136
318.62
318.103
317.585
317.067
316.548
316.028
315.507
322.743
322.229
321.714
321.2
320.685
320.171
319.655
319.14
318.624
318.107
317.59
317.073
316.554
316.035
315.513
322.743
322.229
321.716
321.202
320.688
320.173
319.659
319.144
318.628
318.112
317.596
317.079
316.562
316.043
315.525
322.743
322.23
321.717
321.204
320.69
320.176
319.662
319.148
318.633
318.118
317.602
317.086
316.569
316.052
315.533
322.744
322.231
321.718
321.205
320.692
320.179
319.666
319.152
318.638
318.123
317.608
317.093
316.578
316.062
315.548
322.744
322.232
321.72
321.208
320.695
320.183
319.67
319.157
318.643
318.129
317.615
317.101
316.586
316.071
315.556
322.744
322.233
321.721
321.21
320.698
320.186
319.674
319.161
318.649
318.135
317.622
317.108
316.594
316.08
315.568
322.745
322.234
321.723
321.212
320.701
320.19
319.678
319.166
318.654
318.142
317.629
317.116
316.602
316.088
315.574
322.745
322.235
321.725
321.215
320.704
320.194
319.683
319.172
318.66
318.149
317.636
317.124
316.611
316.097
315.58
322.745
322.236
321.727
321.217
320.707
320.198
319.687
319.177
318.666
318.155
317.644
317.132
316.62
316.106
315.593
322.746
322.237
321.728
321.22
320.711
320.202
319.692
319.183
318.673
318.163
317.652
317.141
316.629
316.117
315.601
322.746
322.238
321.73
321.222
320.714
320.206
319.698
319.189
318.68
318.17
317.661
317.15
316.64
316.128
315.617
322.747
322.24
321.732
321.225
320.718
320.211
319.703
319.195
318.687
318.178
317.669
317.16
316.651
316.14
315.628
322.747
322.241
321.735
321.228
320.722
320.215
319.708
319.201
318.694
318.186
317.678
317.17
316.662
316.154
315.648
322.747
322.242
321.737
321.231
320.726
320.22
319.714
319.208
318.701
318.195
317.688
317.18
316.673
316.166
315.658
322.748
322.243
321.739
321.234
320.73
320.225
319.72
319.215
318.709
318.203
317.697
317.191
316.684
316.178
315.674
322.748
322.245
321.741
321.238
320.734
320.23
319.726
319.222
318.717
318.212
317.707
317.201
316.695
316.188
315.682
322.749
322.246
321.744
321.241
320.738
320.235
319.732
319.229
318.725
318.221
317.716
317.211
316.706
316.199
315.689
322.749
322.248
321.746
321.245
320.743
320.241
319.739
319.236
318.733
318.23
317.727
317.223
316.718
316.212
315.706
322.75
322.249
321.749
321.248
320.747
320.246
319.745
319.244
318.742
318.24
317.737
317.234
316.73
316.225
315.717
322.75
322.251
321.751
321.252
320.752
320.252
319.752
319.252
318.751
318.25
317.748
317.246
316.744
316.24
315.737
322.751
322.253
321.754
321.256
320.757
320.258
319.759
319.26
318.76
318.26
317.76
317.259
316.758
316.255
315.751
322.751
322.254
321.757
321.26
320.762
320.264
319.766
319.268
318.77
318.271
317.772
317.272
316.772
316.273
315.776
322.752
322.256
321.76
321.264
320.767
320.271
319.774
319.277
318.779
318.282
317.784
317.285
316.787
316.288
315.79
322.753
322.258
321.763
321.268
320.773
320.277
319.782
319.286
318.789
318.293
317.796
317.298
316.801
316.304
315.81
322.753
322.26
321.766
321.272
320.778
320.284
319.789
319.295
318.8
318.304
317.808
317.312
316.815
316.318
315.82
322.754
322.261
321.769
321.276
320.784
320.291
319.798
319.304
318.81
318.316
317.821
317.326
316.829
316.331
315.83
322.754
322.263
321.772
321.281
320.79
320.298
319.806
319.314
318.821
318.328
317.834
317.34
316.845
316.348
315.851
322.755
322.265
321.776
321.286
320.795
320.305
319.815
319.324
318.832
318.34
317.848
317.355
316.861
316.365
315.865
322.756
322.267
321.779
321.29
320.802
320.313
319.823
319.334
318.844
318.353
317.862
317.371
316.878
316.385
315.891
322.757
322.27
321.782
321.295
320.808
320.32
319.832
319.344
318.856
318.367
317.877
317.387
316.897
316.405
315.909
322.757
322.272
321.786
321.3
320.814
320.328
319.842
319.355
318.868
318.381
317.893
317.404
316.916
316.428
315.943
322.758
322.274
321.79
321.305
320.821
320.336
319.851
319.366
318.881
318.395
317.908
317.421
316.935
316.448
315.961
322.759
322.276
321.793
321.311
320.828
320.345
319.861
319.378
318.893
318.409
317.924
317.439
316.953
316.469
315.988
322.759
322.278
321.797
321.316
320.835
320.353
319.871
319.389
318.907
318.424
317.94
317.456
316.971
316.486
316.001
322.76
322.281
321.801
321.322
320.842
320.362
319.882
319.401
318.92
318.439
317.957
317.474
316.99
316.504
316.014
322.761
322.283
321.805
321.327
320.849
320.371
319.892
319.413
318.934
318.454
317.974
317.492
317.01
316.526
316.041
322.762
322.286
321.809
321.333
320.857
320.38
319.903
319.426
318.948
318.47
317.991
317.512
317.031
316.548
316.06
322.763
322.288
321.814
321.339
320.864
320.389
319.914
319.439
318.963
318.486
318.01
317.532
317.054
316.574
316.095
322.764
322.291
321.818
321.345
320.872
320.399
319.925
319.452
318.978
318.503
318.028
317.553
317.077
316.6
316.118
322.764
322.293
321.822
321.351
320.88
320.408
319.937
319.465
318.993
318.52
318.048
317.575
317.101
316.629
316.162
322.765
322.296
321.827
321.357
320.888
320.418
319.948
319.478
319.008
318.538
318.067
317.596
317.125
316.655
316.185
322.766
322.299
321.831
321.364
320.896
320.428
319.96
319.492
319.024
318.555
318.086
317.617
317.149
316.681
316.22
322.767
322.302
321.836
321.37
320.904
320.438
319.972
319.506
319.04
318.573
318.106
317.639
317.171
316.704
316.236
322.768
322.304
321.84
321.376
320.913
320.448
319.984
319.52
319.056
318.591
318.126
317.66
317.194
316.726
316.252
322.769
322.307
321.845
321.383
320.921
320.459
319.997
319.534
319.072
318.609
318.146
317.682
317.218
316.752
316.286
322.77
322.31
321.85
321.39
320.929
320.469
320.009
319.549
319.088
318.628
318.167
317.705
317.243
316.779
316.309
322.771
322.313
321.854
321.396
320.938
320.48
320.021
319.563
319.105
318.646
318.188
317.729
317.27
316.81
316.351
322.772
322.315
321.859
321.403
320.946
320.49
320.034
319.577
319.121
318.665
318.209
317.753
317.296
316.84
316.378
322.773
322.318
321.864
321.409
320.955
320.501
320.046
319.592
319.138
318.684
318.23
317.776
317.324
316.873
316.428
322.774
322.321
321.869
321.416
320.964
320.511
320.059
319.606
319.154
318.702
318.251
317.8
317.35
316.902
316.455
322.775
322.324
321.873
321.423
320.972
320.522
320.071
319.621
319.171
318.721
318.271
317.823
317.375
316.93
316.493
322.776
322.327
321.878
321.429
320.981
320.532
320.083
319.635
319.187
318.739
318.291
317.844
317.398
316.953
316.51
322.777
322.33
321.883
321.436
320.989
320.542
320.096
319.649
319.203
318.757
318.311
317.866
317.421
316.976
316.526
322.777
322.332
321.887
321.442
320.998
320.553
320.108
319.663
319.219
318.774
318.331
317.887
317.444
317.001
316.559
322.778
322.335
321.892
321.449
321.006
320.563
320.12
319.677
319.234
318.792
318.35
317.908
317.467
317.025
316.581
322.779
322.338
321.897
321.456
321.014
320.573
320.132
319.691
319.25
318.809
318.369
317.929
317.49
317.052
316.617
322.78
322.341
321.902
321.462
321.023
320.583
320.144
319.705
319.265
318.826
318.387
317.949
317.512
317.076
316.639
322.781
322.344
321.906
321.469
321.031
320.594
320.156
319.718
319.281
318.843
318.406
317.969
317.534
317.102
316.676
322.782
322.347
321.911
321.476
321.04
320.604
320.168
319.732
319.296
318.86
318.423
317.988
317.554
317.122
316.694
322.783
322.35
321.916
321.482
321.049
320.615
320.18
319.746
319.311
318.876
318.441
318.006
317.572
317.14
316.715
322.784
322.353
321.921
321.489
321.057
320.625
320.193
319.76
319.327
318.893
318.458
318.023
317.588
317.154
316.724
322.785
322.356
321.926
321.496
321.066
320.636
320.206
319.775
319.343
318.91
318.476
318.04
317.603
317.166
316.729
322.786
322.359
321.931
321.503
321.076
320.647
320.219
319.79
319.359
318.928
318.495
318.059
317.619
317.176
316.732
322.787
322.362
321.936
321.511
321.085
320.659
320.232
319.805
319.377
318.947
318.515
318.079
317.638
317.188
316.731
322.788
322.365
321.942
321.518
321.095
320.671
320.247
319.822
319.396
318.968
318.538
318.104
317.662
317.205
316.716
322.789
322.368
321.947
321.526
321.104
320.683
320.261
319.839
319.416
318.991
318.565
318.134
317.697
317.244
316.75
289.421
288.913
288.447
287.997
287.554
287.115
286.679
286.244
285.811
285.378
284.945
284.513
284.08
283.648
283.216
289.453
288.949
288.478
288.024
287.577
287.136
286.697
286.26
285.824
285.389
284.954
284.519
284.085
283.651
283.217
289.43
288.961
288.499
288.045
287.598
287.154
286.713
286.274
285.836
285.399
284.962
284.526
284.09
283.654
283.218
289.426
288.969
288.514
288.063
287.615
287.171
286.729
286.288
285.848
285.409
284.97
284.532
284.094
283.657
283.219
289.425
288.975
288.526
288.077
287.631
287.186
286.743
286.301
285.859
285.419
284.978
284.538
284.099
283.659
283.22
289.423
288.982
288.537
288.091
287.645
287.2
286.756
286.313
285.87
285.428
284.986
284.544
284.103
283.662
283.221
289.427
288.99
288.548
288.104
287.659
287.214
286.769
286.325
285.881
285.437
284.993
284.55
284.107
283.664
283.221
289.44
289.002
288.561
288.117
287.672
287.227
286.781
286.336
285.891
285.446
285.001
284.556
284.111
283.667
283.222
289.452
289.017
288.576
288.132
287.686
287.24
286.794
286.347
285.901
285.454
285.008
284.562
284.115
283.669
283.223
289.48
289.036
288.592
288.147
287.701
287.254
286.806
286.359
285.911
285.463
285.015
284.567
284.119
283.672
283.224
289.497
289.055
288.61
288.163
287.716
287.268
286.819
286.37
285.921
285.472
285.022
284.573
284.123
283.674
283.225
289.526
289.076
288.628
288.18
287.731
287.282
286.832
286.381
285.931
285.48
285.029
284.578
284.127
283.676
283.225
289.543
289.096
288.647
288.197
287.747
287.296
286.845
286.393
285.941
285.489
285.036
284.584
284.131
283.679
283.226
289.571
289.117
288.666
288.215
287.763
287.311
286.858
286.405
285.951
285.497
285.044
284.59
284.135
283.681
283.227
289.584
289.135
288.685
288.233
287.78
287.326
286.871
286.417
285.962
285.506
285.051
284.595
284.139
283.684
283.228
289.599
289.155
288.704
288.251
287.797
287.341
286.885
286.429
285.972
285.515
285.058
284.601
284.143
283.686
283.229
289.632
289.179
288.726
288.271
287.814
287.357
286.899
286.441
285.983
285.524
285.065
284.607
284.148
283.689
283.23
289.655
289.205
288.749
288.291
287.832
287.373
286.914
286.454
285.994
285.533
285.073
284.612
284.152
283.691
283.23
289.699
289.234
288.773
288.312
287.851
287.389
286.928
286.466
286.004
285.542
285.08
284.618
284.156
283.693
283.231
289.723
289.26
288.796
288.333
287.869
287.406
286.943
286.479
286.015
285.552
285.088
284.624
284.16
283.696
283.232
289.76
289.288
288.82
288.354
287.888
287.422
286.957
286.492
286.026
285.561
285.095
284.63
284.164
283.698
283.233
289.781
289.312
288.842
288.374
287.906
287.439
286.972
286.504
286.037
285.57
285.103
284.635
284.168
283.701
283.234
289.812
289.335
288.864
288.394
287.924
287.455
286.986
286.517
286.048
285.579
285.11
284.641
284.172
283.703
283.234
289.826
289.356
288.885
288.413
287.942
287.471
287.001
286.53
286.059
285.588
285.118
284.647
284.177
283.706
283.235
289.841
289.376
288.905
288.433
287.96
287.488
287.015
286.542
286.07
285.598
285.125
284.653
284.181
283.708
283.236
289.873
289.4
288.927
288.453
287.978
287.504
287.029
286.555
286.081
285.607
285.133
284.659
284.185
283.711
283.237
289.895
289.424
288.949
288.472
287.996
287.52
287.043
286.567
286.091
285.616
285.14
284.664
284.189
283.713
283.238
289.935
289.451
288.971
288.492
288.014
287.535
287.057
286.58
286.102
285.625
285.147
284.67
284.193
283.716
283.239
289.957
289.475
288.993
288.512
288.031
287.551
287.071
286.592
286.112
285.633
285.154
284.676
284.197
283.718
283.239
289.99
289.5
289.014
288.531
288.048
287.566
287.085
286.604
286.123
285.642
285.162
284.681
284.201
283.72
283.24
290.008
289.521
289.034
288.549
288.065
287.581
287.098
286.615
286.133
285.651
285.169
284.687
284.205
283.723
283.241
290.034
289.541
289.053
288.567
288.081
287.596
287.111
286.627
286.143
285.659
285.176
284.692
284.209
283.725
283.242
290.046
289.558
289.071
288.583
288.097
287.61
287.124
286.638
286.153
285.668
285.182
284.697
284.212
283.727
283.242
290.058
289.575
289.088
288.6
288.112
287.624
287.137
286.65
286.163
285.676
285.189
284.703
284.216
283.73
283.243
290.084
289.595
289.106
288.617
288.127
287.638
287.149
286.661
286.172
285.684
285.196
284.708
284.22
283.732
283.244
290.101
289.614
289.124
288.633
288.142
287.652
287.162
286.672
286.182
285.692
285.202
284.713
284.223
283.734
283.245
290.133