/*--------------------------------*- C++ -*----------------------------------*\
| =========                 |                                                 |
| \\      /  F ield         | OpenFOAM: The Open Source CFD Toolbox           |
|  \\    /   O peration     | Version:  5.x                                   |
|   \\  /    A nd           | Web:      www.OpenFOAM.org                      |
|    \\/     M anipulation  |                                                 |
\*---------------------------------------------------------------------------*/
FoamFile
{
    version     2.0;
    format      ascii;
    class       volScalarField;
    location    "0.3";
    object      gradTx;
}
// * * * * * * * * * * * * * * * * * * * * * * * * * * * * * * * * * * * * * //

dimensions      [0 -1 0 1 0 0 0];

internalField   nonuniform List<scalar> 
6300
(
-70.7664
-70.6514
-70.4209
-70.0737
-69.6085
-69.0236
-68.3173
-67.4882
-66.5355
-65.4593
-64.261
-62.9439
-61.5127
-59.9744
-58.3376
-70.8777
-70.7633
-70.5338
-70.1882
-69.7248
-69.1416
-68.4368
-67.6087
-66.6559
-65.5784
-64.3773
-63.0554
-61.6176
-60.0709
-58.4242
-71.0998
-70.9866
-70.7594
-70.4169
-69.9571
-69.3778
-68.6764
-67.8504
-66.8981
-65.8183
-64.6116
-63.2803
-61.8292
-60.2655
-58.5987
-71.4314
-71.32
-71.0965
-70.7591
-70.3055
-69.7326
-69.0371
-68.2154
-67.2645
-66.1822
-64.9677
-63.6224
-62.1509
-60.5608
-58.8628
-71.8705
-71.7619
-71.5438
-71.214
-70.7695
-70.2065
-69.5204
-68.7063
-67.7594
-66.6753
-65.4517
-64.0884
-62.5891
-60.9619
-59.2195
-72.4143
-72.3096
-72.0989
-71.7797
-71.3484
-70.7999
-70.1283
-69.3268
-68.388
-67.3051
-66.0725
-64.6877
-63.1527
-61.4761
-59.6732
-73.059
-72.9593
-72.7586
-72.4539
-72.0406
-71.5128
-70.8627
-70.0811
-69.1576
-68.0814
-66.8426
-65.4343
-63.8556
-62.1144
-60.2299
-73.7992
-73.7061
-73.5184
-73.2326
-72.8436
-72.3442
-71.7249
-70.9737
-70.0765
-69.0171
-67.7791
-66.3485
-64.7182
-62.8938
-60.8988
-74.6284
-74.5436
-74.3721
-74.1105
-73.7531
-73.2917
-72.7151
-72.0088
-71.154
-70.128
-68.905
-67.4594
-65.772
-63.841
-61.6939
-75.5383
-75.4634
-75.3119
-75.0802
-74.7625
-74.3503
-73.8313
-73.1885
-72.399
-71.4323
-70.2501
-68.8087
-67.0664
-65.0017
-62.6403
-76.5187
-76.4555
-76.3275
-76.1316
-75.8623
-75.5116
-75.0671
-74.511
-73.8172
-72.9481
-71.8508
-70.4553
-68.68
-66.4561
-63.7855
-77.5579
-77.5079
-77.4067
-77.2519
-77.0394
-76.7623
-76.4103
-75.967
-75.4066
-74.6879
-73.7455
-72.4779
-70.7386
-68.3542
-65.227
-78.6425
-78.6069
-78.535
-78.4256
-78.2764
-78.0834
-77.8402
-77.5355
-77.1496
-76.6469
-75.9612
-74.9682
-73.4388
-70.9919
-67.1874
-79.7581
-79.7374
-79.6961
-79.6344
-79.5524
-79.4502
-79.3269
-79.1804
-79.0046
-78.7841
-78.4797
-77.9907
-77.0523
-74.9834
-70.2852
-80.8896
-80.8837
-80.8728
-80.8586
-80.8439
-80.833
-80.8319
-80.8496
-80.8993
-81.0001
-81.1782
-81.4581
-81.7914
-81.5992
-76.9355
-56.7622
-55.2697
-53.7293
-52.1475
-50.5309
-48.8859
-47.2187
-45.5355
-43.8424
-42.1456
-40.4515
-38.7667
-37.0976
-35.4508
-33.8323
-32.2482
-30.7038
-29.2038
-27.7526
-26.3535
-25.0097
-23.7234
-22.4966
-21.3304
-20.2257
-19.1827
-18.2015
-17.2817
-16.4224
-15.6227
-14.8815
-14.1976
-13.5694
-12.9955
-12.4746
-12.0051
-11.5857
-11.2151
-10.8922
-10.6158
-10.3851
-10.1993
-10.0576
-9.95974
-9.90529
-9.89414
-9.92636
-10.0022
-10.122
-10.2864
-10.496
-10.7518
-11.0546
-11.4056
-11.8057
-12.2562
-12.7584
-13.3133
-13.9224
-14.5868
-15.3078
-16.0865
-16.9241
-17.8215
-18.7797
-19.7993
-20.8808
-22.0243
-23.2296
-24.4963
-25.8233
-27.2093
-28.6522
-30.1496
-31.6985
-33.2953
-34.9355
-36.6143
-38.3261
-40.065
-41.8242
-43.5969
-45.3755
-47.1523
-48.9192
-50.6674
-52.3883
-54.0728
-55.7122
-57.2977
-56.8391
-55.3374
-53.7877
-52.1967
-50.5712
-48.9175
-47.2416
-45.5498
-43.8479
-42.1421
-40.4389
-38.7448
-37.0666
-35.4109
-33.7842
-32.1925
-30.6413
-29.1354
-27.679
-26.2758
-24.9286
-23.6398
-22.4111
-21.2438
-20.1386
-19.0958
-18.1152
-17.1963
-16.3384
-15.5404
-14.8011
-14.1191
-13.493
-12.9212
-12.4023
-11.9348
-11.5172
-11.1483
-10.8269
-10.5518
-10.3223
-10.1373
-9.99637
-9.89892
-9.84465
-9.83343
-9.8653
-9.94053
-10.0595
-10.2229
-10.4314
-10.6858
-10.9872
-11.3365
-11.735
-12.1838
-12.6841
-13.2373
-13.8446
-14.5072
-15.2265
-16.0037
-16.8398
-17.736
-18.6932
-19.7121
-20.7933
-21.9371
-23.1432
-24.4112
-25.7402
-27.1289
-28.5753
-30.077
-31.6311
-33.2339
-34.8811
-36.5677
-38.2881
-40.0362
-41.8054
-43.5885
-45.3782
-47.1666
-48.9455
-50.7062
-52.4397
-54.1369
-55.7884
-57.3854
-56.9936
-55.473
-53.9043
-52.2949
-50.6515
-48.9804
-47.2875
-45.5785
-43.8591
-42.1354
-40.4137
-38.7009
-37.0041
-35.3305
-33.687
-32.0799
-30.5149
-28.9971
-27.5307
-26.1191
-24.7653
-23.4714
-22.2391
-21.0697
-19.9636
-18.9211
-17.9418
-17.0252
-16.1701
-15.3755
-14.64
-13.9621
-13.3402
-12.7726
-12.2579
-11.7943
-11.3804
-11.0149
-10.6965
-10.4242
-10.1969
-10.0138
-9.87419
-9.77763
-9.72373
-9.71234
-9.74352
-9.81756
-9.9349
-10.0962
-10.3022
-10.5539
-10.8523
-11.1984
-11.5935
-12.0388
-12.5356
-13.0851
-13.6888
-14.348
-15.0638
-15.8377
-16.6709
-17.5645
-18.5196
-19.5372
-20.6178
-21.7618
-22.9694
-24.24
-25.573
-26.9669
-28.4202
-29.9305
-31.4949
-33.1099
-34.7711
-36.4734
-38.2111
-39.9778
-41.7668
-43.571
-45.3828
-47.1945
-48.9977
-50.7835
-52.5428
-54.2656
-55.9421
-57.5625
-57.2263
-55.6763
-54.0786
-52.4411
-50.771
-49.0743
-47.3564
-45.6223
-43.877
-42.1261
-40.3763
-38.6347
-36.9093
-35.208
-33.5386
-31.908
-30.3223
-28.7866
-27.3051
-25.8811
-24.5174
-23.2161
-21.9787
-20.8062
-19.6991
-18.6573
-17.6803
-16.7672
-15.9167
-15.1275
-14.3979
-13.7263
-13.1109
-12.5499
-12.0415
-11.584
-11.1758
-10.8155
-10.5017
-10.2334
-10.0095
-9.82925
-9.69182
-9.59664
-9.54332
-9.53167
-9.56177
-9.63394
-9.74871
-9.90681
-10.1091
-10.3566
-10.6504
-10.9917
-11.3816
-11.8216
-12.3128
-12.8569
-13.4551
-14.1088
-14.8195
-15.5884
-16.4169
-17.3064
-18.2581
-19.2733
-20.3527
-21.4971
-22.7066
-23.981
-25.3196
-26.7214
-28.1847
-29.7076
-31.2874
-32.9207
-34.603
-36.3291
-38.093
-39.888
-41.7069
-43.5427
-45.3878
-47.2344
-49.0744
-50.8986
-52.6973
-54.4598
-56.1751
-57.832
-57.5385
-55.9471
-54.309
-52.6336
-50.9282
-49.1986
-47.4488
-45.6824
-43.9031
-42.1161
-40.3278
-38.5463
-36.7808
-35.0409
-33.3356
-31.6728
-30.0592
-28.4997
-26.9984
-25.5582
-24.1816
-22.8706
-21.6266
-20.4504
-19.3424
-18.3022
-17.3288
-16.4209
-15.577
-14.7954
-14.0742
-13.4115
-12.8052
-12.2533
-11.7538
-11.3046
-10.9041
-10.5507
-10.2431
-9.98028
-9.76113
-9.58475
-9.45029
-9.35706
-9.30456
-9.29256
-9.32112
-9.39064
-9.5018
-9.65545
-9.85261
-10.0944
-10.382
-10.7166
-11.0995
-11.5321
-12.0159
-12.5525
-13.1433
-13.7897
-14.4931
-15.2551
-16.077
-16.9605
-17.9072
-18.9186
-19.9961
-21.1405
-22.3523
-23.6314
-24.9771
-26.3888
-27.865
-29.4043
-31.0044
-32.6621
-34.373
-36.1315
-37.9311
-39.7642
-41.6234
-43.5013
-45.3905
-47.2838
-49.1733
-51.05
-52.9032
-54.721
-56.4906
-58.199
-57.9313
-56.2838
-54.5923
-52.8682
-51.1198
-49.3515
-47.5651
-45.7611
-43.9411
-42.1086
-40.2703
-38.4358
-36.6167
-34.8252
-33.0727
-31.3685
-29.7197
-28.1308
-26.6053
-25.1455
-23.7533
-22.4306
-21.1787
-19.9986
-18.8902
-17.8528
-16.8848
-15.9844
-15.1496
-14.3782
-13.6681
-13.0172
-12.423
-11.8832
-11.3952
-10.9568
-10.5662
-10.2216
-9.92191
-9.66598
-9.45286
-9.28156
-9.15108
-9.06052
-9.00917
-8.99669
-9.02316
-9.08909
-9.19536
-9.3431
-9.53355
-9.76794
-10.0475
-10.3736
-10.7474
-11.1707
-11.6449
-12.1719
-12.7531
-13.3902
-14.0844
-14.8373
-15.6504
-16.5256
-17.465
-18.4709
-19.545
-20.6889
-21.903
-23.1875
-24.5417
-25.9649
-27.4564
-29.0152
-30.64
-32.3282
-34.0757
-35.8761
-37.7217
-39.6037
-41.5137
-43.4438
-45.3875
-47.3386
-49.2905
-51.2344
-53.1591
-55.0506
-56.8931
-58.6705
-58.4052
-56.6823
-54.9211
-53.1371
-51.3393
-49.5301
-47.7064
-45.8634
-43.9976
-42.1102
-40.2083
-38.3042
-36.4141
-34.555
-32.7419
-30.9864
-29.2954
-27.6727
-26.1197
-24.6373
-23.227
-21.8905
-20.6296
-19.4454
-18.3378
-17.3053
-16.3455
-15.4555
-14.6327
-13.8746
-13.1788
-12.543
-11.9645
-11.4401
-10.967
-10.5422
-10.1637
-9.82974
-9.53935
-9.29173
-9.08605
-8.92126
-8.79606
-8.70916
-8.65946
-8.64639
-8.67001
-8.73109
-8.83088
-8.97094
-9.15287
-9.3781
-9.64788
-9.96341
-10.3261
-10.7376
-11.1998
-11.7149
-12.2845
-12.9102
-13.5932
-14.3347
-15.1363
-16.0001
-16.9292
-17.9267
-18.9956
-20.1379
-21.3546
-22.6452
-24.0088
-25.4446
-26.9525
-28.5328
-30.1859
-31.9107
-33.7035
-35.5569
-37.4609
-39.404
-41.3755
-43.3672
-45.3739
-47.3924
-49.4188
-51.4462
-53.4621
-55.4495
-57.3881
-59.2566
-58.96
-57.1342
-55.2816
-53.4248
-51.5747
-49.729
-47.8755
-45.9984
-44.0857
-42.1337
-40.1505
-38.1539
-36.1686
-34.22
-32.33
-30.513
-28.775
-27.1163
-25.5343
-24.0275
-22.5965
-21.2437
-19.9722
-18.7841
-17.6793
-16.6552
-15.7076
-14.832
-14.0247
-13.2831
-12.6051
-11.9883
-11.4297
-10.9252
-10.4708
-10.0629
-9.69868
-9.37686
-9.09692
-8.85879
-8.66206
-8.50561
-8.38758
-8.30587
-8.25866
-8.24488
-8.2646
-8.31899
-8.41006
-8.54017
-8.71152
-8.92579
-9.18404
-9.48711
-9.83618
-10.2331
-10.6805
-11.1811
-11.737
-12.3497
-13.0197
-13.7475
-14.5344
-15.3828
-16.2969
-17.2818
-18.3425
-19.4822
-20.7017
-21.9998
-23.374
-24.8227
-26.3463
-27.9475
-29.6303
-31.3971
-33.2455
-35.1664
-37.1451
-39.1644
-41.2092
-43.2697
-45.3438
-47.4347
-49.5458
-51.6739
-53.8054
-55.9176
-57.9825
-59.9711
-59.5935
-57.6229
-55.6469
-53.7019
-51.8033
-49.9391
-48.0784
-46.1851
-44.2306
-42.2033
-40.1129
-37.989
-35.8717
-33.8026
-31.8151
-29.9278
-28.1428
-26.4514
-24.843
-23.311
-21.8556
-20.4821
-19.1969
-18.005
-16.9068
-15.8972
-14.9682
-14.1123
-13.3242
-12.602
-11.9451
-11.3519
-10.8188
-10.34
-9.90963
-9.52223
-9.17447
-8.86539
-8.59599
-8.36789
-8.18176
-8.03628
-7.92845
-7.85458
-7.81135
-7.79677
-7.81088
-7.85569
-7.93464
-8.05163
-8.21003
-8.41182
-8.65734
-8.94629
-9.27905
-9.6578
-10.0864
-10.5693
-11.1097
-11.7085
-12.3648
-13.0774
-13.846
-14.6731
-15.5648
-16.53
-17.5777
-18.7135
-19.938
-21.2469
-22.6342
-24.0953
-25.6305
-27.2467
-28.9557
-30.7679
-32.6848
-34.6943
-36.7722
-38.8896
-41.0212
-43.1534
-45.2899
-47.4482
-49.648
-51.8961
-54.1758
-56.4528
-58.6854
-60.8331
-60.3015
-58.1178
-55.9663
-53.9116
-51.982
-50.1443
-48.3288
-46.4606
-44.4815
-42.3646
-40.1251
-37.8159
-35.5073
-33.2698
-31.158
-29.1975
-27.3779
-25.6696
-24.0438
-22.4863
-20.9994
-19.5954
-18.2896
-17.0934
-16.0088
-15.0251
-14.1259
-13.2967
-12.5308
-11.829
-11.1952
-10.6309
-10.1312
-9.6871
-9.28827
-8.92628
-8.59628
-8.29845
-8.03722
-7.8182
-7.64454
-7.51433
-7.42202
-7.36077
-7.32436
-7.30896
-7.31452
-7.34483
-7.40604
-7.50504
-7.64764
-7.83647
-8.06976
-8.34401
-8.65738
-9.01239
-9.41598
-9.87656
-10.4
-10.9862
-11.631
-12.3286
-13.0753
-13.8724
-14.7291
-15.6617
-16.688
-17.8196
-19.0551
-20.3836
-21.7904
-23.2634
-24.8002
-26.4147
-28.1347
-29.9898
-31.9929
-34.1253
-36.344
-38.5958
-40.8334
-43.032
-45.2051
-47.4019
-49.6808
-52.0722
-54.5492
-57.0505
-59.5091
-61.8697
-61.077
-58.5648
-56.1452
-53.9403
-52.028
-50.3177
-48.6558
-46.8972
-44.932
-42.7039
-40.2396
-37.644
-35.0424
-32.558
-30.2852
-28.2668
-26.4553
-24.7712
-23.1489
-21.5625
-20.0263
-18.5697
-17.2267
-16.0233
-14.9676
-14.0336
-13.1846
-12.3921
-11.6471
-10.96
-10.3469
-9.81853
-9.36562
-8.97062
-8.61557
-8.28592
-7.97343
-7.68042
-7.41929
-7.20475
-7.04632
-6.93933
-6.87241
-6.83269
-6.80868
-6.79249
-6.78404
-6.79099
-6.82453
-6.89721
-7.0202
-7.19863
-7.42478
-7.68701
-7.97734
-8.29871
-8.66516
-9.09508
-9.60174
-10.1816
-10.8229
-11.511
-12.2341
-12.9879
-13.7862
-14.6606
-15.6491
-16.7784
-18.0406
-19.4101
-20.8536
-22.342
-23.8606
-25.4331
-27.1215
-29.0008
-31.1171
-33.4338
-35.8698
-38.3239
-40.7032
-42.9481
-45.087
-47.2377
-49.5515
-52.1246
-54.8867
-57.7082
-60.4718
-63.1158
-61.9043
-58.8774
-56.0135
-53.5464
-51.7823
-50.4207
-49.1219
-47.6318
-45.7624
-43.3848
-40.5451
-37.4829
-34.4112
-31.5443
-29.0488
-27.0409
-25.3519
-23.787
-22.2051
-20.5693
-18.9411
-17.3833
-15.9654
-14.743
-13.7535
-12.9219
-12.1643
-11.4213
-10.6823
-9.98617
-9.37882
-8.89936
-8.51847
-8.19845
-7.90805
-7.62259
-7.3242
-7.01814
-6.73589
-6.51209
-6.3756
-6.30822
-6.28522
-6.28355
-6.28327
-6.26645
-6.23292
-6.2004
-6.18819
-6.21845
-6.31449
-6.49364
-6.72941
-6.99117
-7.25425
-7.52177
-7.82466
-8.20486
-8.69987
-9.29051
-9.94937
-10.6452
-11.3508
-12.0417
-12.736
-13.4974
-14.4101
-15.5482
-16.8742
-18.3327
-19.8551
-21.3797
-22.8461
-24.2876
-25.8359
-27.6729
-29.9554
-32.5731
-35.3718
-38.1617
-40.7681
-43.0182
-44.9531
-46.8391
-49.0492
-51.9043
-55.138
-58.4482
-61.6051
-64.5991
-62.7088
-58.9527
-55.3086
-52.1393
-50.9572
-50.4341
-49.8649
-48.9142
-47.3264
-44.7332
-41.1733
-37.3383
-33.4876
-29.9985
-27.1132
-25.3584
-24.073
-22.83
-21.3421
-19.5683
-17.7574
-15.9978
-14.4253
-13.1295
-12.3145
-11.7058
-11.1253
-10.4467
-9.65774
-8.88646
-8.22836
-7.83998
-7.58538
-7.3853
-7.19509
-6.97955
-6.68766
-6.32315
-5.96983
-5.69518
-5.60679
-5.61466
-5.66878
-5.7339
-5.78319
-5.76595
-5.68183
-5.58201
-5.49213
-5.44638
-5.49049
-5.70857
-5.99806
-6.29495
-6.52631
-6.69553
-6.87445
-7.15097
-7.66203
-8.303
-9.02461
-9.7672
-10.4909
-11.0927
-11.5914
-12.1187
-12.8488
-14.0501
-15.5197
-17.1659
-18.8565
-20.5043
-21.8706
-22.9913
-24.1375
-25.7063
-28.3136
-31.4542
-34.8889
-38.2659
-41.3482
-43.544
-44.8907
-45.9746
-47.6181
-51.1385
-55.2781
-59.4072
-62.9716
-66.2422
-62.9834
-58.8643
-53.9191
-47.8698
-49.1828
-50.5142
-51.1581
-51.1158
-50.3403
-47.4765
-42.2004
-37.2195
-32.0462
-27.5866
-23.5529
-23.0032
-22.7366
-22.229
-20.8944
-18.624
-16.5029
-14.3461
-12.4892
-10.8263
-10.5809
-10.4515
-10.2298
-9.63317
-8.60983
-7.6257
-6.6913
-6.58969
-6.57552
-6.55964
-6.52032
-6.44815
-6.15731
-5.61359
-5.09198
-4.61146
-4.70077
-4.85596
-5.03795
-5.20852
-5.38044
-5.36326
-5.15485
-4.95072
-4.73392
-4.54626
-4.41734
-4.82205
-5.25754
-5.69461
-5.8894
-5.85687
-5.78526
-5.76095
-6.43881
-7.20122
-8.07163
-8.91865
-9.80857
-10.2947
-10.408
-10.4504
-10.6115
-12.1682
-13.9137
-15.9382
-17.9228
-20.0376
-21.2523
-21.6613
-21.834
-22.2471
-25.9071
-29.9148
-34.492
-38.7973
-43.2073
-45.2948
-45.2083
-44.3054
-43.4846
-49.4806
-55.4328
-61.1777
-64.7585
-67.3127
-59.281
-59.9632
-54.117
-32.998
-47.3816
-51.585
-53.4409
-54.3752
-56.3642
-53.697
-42.8061
-37.3815
-29.5808
-24.5645
-14.9787
-20.2442
-21.7508
-22.8231
-21.7983
-17.4684
-15.3033
-12.2652
-10.2767
-6.48404
-8.68266
-9.33239
-9.87683
-9.43634
-7.50751
-6.29513
-3.95663
-5.21511
-5.56978
-5.76943
-5.89459
-6.23333
-5.99277
-4.87368
-4.15634
-2.70841
-3.70114
-4.06001
-4.42499
-4.68267
-5.25152
-5.23747
-4.62316
-4.33907
-3.93505
-3.56277
-2.5769
-3.8925
-4.51612
-5.44464
-5.58138
-5.07596
-4.62944
-3.36119
-5.09541
-5.94572
-7.1543
-8.01052
-9.71015
-10.036
-9.32934
-8.61339
-6.36699
-10.0171
-11.9088
-14.7713
-16.8055
-20.8711
-21.7983
-20.6754
-19.1877
-14.1156
-23.0031
-27.5587
-34.4904
-39.1812
-48.4141
-50.1791
-46.7035
-42.5192
-29.5353
-47.8859
-55.8849
-66.0633
-68.0217
-63.3535
-58.9663
-60.6935
-62.309
-63.8044
-65.1735
-66.4127
-67.5204
-68.4966
-69.3427
-70.0611
-70.6541
-71.1247
-71.4751
-71.7076
-71.8234
-59.0653
-60.8032
-62.427
-63.9282
-65.3009
-66.5415
-67.6489
-68.6236
-69.4674
-70.183
-70.7733
-71.2413
-71.5897
-71.8207
-71.9358
-59.2656
-61.0249
-62.6655
-64.1783
-65.5577
-66.8009
-67.9073
-68.8785
-69.7172
-70.427
-71.0114
-71.4741
-71.8181
-72.0461
-72.1596
-59.5711
-61.3635
-63.0294
-64.5594
-65.9483
-67.1942
-68.298
-69.2628
-70.0929
-70.7929
-71.3678
-71.822
-72.1592
-72.3823
-72.4933
-59.9884
-61.8268
-63.527
-65.0793
-66.4793
-67.7267
-68.8248
-69.7789
-70.5953
-71.2808
-71.8416
-72.2834
-72.6107
-72.8269
-72.9345
-60.5273
-62.4261
-64.1701
-65.7491
-67.16
-68.4056
-69.4926
-70.4294
-71.2256
-71.89
-72.4312
-72.8558
-73.1696
-73.3766
-73.4794
-61.2017
-63.1781
-64.9757
-66.5842
-68.0032
-69.2402
-70.3071
-71.2173
-71.984
-72.6193
-73.1337
-73.5357
-73.8318
-74.0267
-74.1234
-62.0313
-64.1065
-65.968
-67.6058
-69.0254
-70.2418
-71.2749
-72.1451
-72.8702
-73.466
-73.9452
-74.3179
-74.5915
-74.7712
-74.8602
-63.0451
-65.2461
-67.1811
-68.8428
-70.2475
-71.4233
-72.4023
-73.2138
-73.8818
-74.4254
-74.8595
-75.1955
-75.4413
-75.6025
-75.6822
-64.2858
-66.6492
-68.6648
-70.334
-71.695
-72.7987
-73.6941
-74.4222
-75.0135
-75.49
-75.8681
-76.1594
-76.372
-76.5112
-76.58
-65.8176
-68.3975
-70.4922
-72.1301
-73.3962
-74.3788
-75.1502
-75.7639
-76.2557
-76.6488
-76.9594
-77.1981
-77.3722
-77.4862
-77.5426
-67.7401
-70.6275
-72.7729
-74.2948
-75.3764
-76.1655
-76.7605
-77.2239
-77.592
-77.8857
-78.1181
-78.2973
-78.4285
-78.5147
-78.5574
-70.2304
-73.5962
-75.6731
-76.8963
-77.6454
-78.1415
-78.4988
-78.7753
-78.9979
-79.1792
-79.3255
-79.4403
-79.5257
-79.5823
-79.6106
-73.75
-77.8502
-79.4234
-79.9681
-80.1626
-80.2512
-80.3145
-80.3766
-80.4404
-80.5026
-80.5596
-80.6085
-80.6472
-80.674
-80.6877
-80.4194
-84.626
-84.1971
-83.3867
-82.7802
-82.3808
-82.1275
-81.9719
-81.8793
-81.826
-81.7968
-81.7822
-81.7761
-81.7743
-81.774
-81.9275
-81.9345
-81.9499
-81.9767
-82.0198
-82.0868
-82.1893
-82.3454
-82.5842
-82.9559
-83.554
-84.5828
-86.6117
-91.7567
-110.062
-82.8628
-82.8805
-82.9177
-82.9783
-83.0686
-83.1983
-83.3822
-83.6437
-84.0199
-84.5731
-85.411
-86.7248
-88.8256
-91.8476
-92.2031
-83.7823
-83.8094
-83.8658
-83.9557
-84.0862
-84.2681
-84.5173
-84.8584
-85.329
-85.9889
-86.9333
-88.3157
-90.3956
-93.7858
-101.718
-84.6792
-84.7144
-84.7869
-84.9012
-85.0644
-85.2871
-85.5845
-85.9789
-86.5027
-87.2033
-88.1471
-89.4172
-91.0509
-92.5649
-89.7267
-85.5481
-85.5898
-85.6753
-85.809
-85.9974
-86.25
-86.5799
-87.0052
-87.5499
-88.2449
-89.1295
-90.2616
-91.7846
-94.3612
-101.934
-86.3843
-86.4311
-86.5267
-86.6749
-86.8816
-87.1548
-87.5048
-87.9445
-88.4887
-89.1507
-89.9355
-90.8296
-91.7819
-92.6829
-93.3479
-87.1842
-87.2348
-87.3377
-87.4963
-87.7156
-88.002
-88.3629
-88.8071
-89.3418
-89.9668
-90.6608
-91.3524
-91.8099
-91.1633
-85.2845
-87.9452
-87.9983
-88.1062
-88.2716
-88.4988
-88.7927
-89.1588
-89.6028
-90.1282
-90.7301
-91.3833
-92.0332
-92.5991
-93.2726
-97.2477
-88.6654
-88.7201
-88.8308
-89.0001
-89.2313
-89.5285
-89.8959
-90.3379
-90.8579
-91.4525
-92.1035
-92.7678
-93.3084
-93.084
-87.9843
-89.3438
-89.3991
-89.511
-89.6815
-89.9136
-90.2107
-90.5764
-91.0152
-91.5321
-92.1304
-92.8097
-93.5841
-94.5435
-96.2764
-102.777
-89.9799
-90.0351
-90.1466
-90.3162
-90.5465
-90.8403
-91.2013
-91.6342
-92.1463
-92.7466
-93.4454
-94.2674
-95.2361
-96.153
-94.6101
-90.5737
-90.6281
-90.7379
-90.9047
-91.1307
-91.4184
-91.7712
-92.1942
-92.6961
-93.289
-93.9907
-94.8447
-95.9594
-97.7332
-102.478
-91.1257
-91.1788
-91.2858
-91.4481
-91.6675
-91.9463
-92.2874
-92.6955
-93.1792
-93.7505
-94.4255
-95.2369
-96.2197
-97.2453
-96.6581
-91.6369
-91.6882
-91.7914
-91.9477
-92.1587
-92.4261
-92.752
-93.1404
-93.5982
-94.1347
-94.761
-95.506
-96.4452
-97.8729
-101.38
-92.1085
-92.1576
-92.2563
-92.4055
-92.6064
-92.8601
-93.1682
-93.533
-93.9591
-94.4511
-95.0094
-95.6361
-96.3263
-97.0525
-97.7089
-92.5421
-92.5886
-92.6821
-92.8233
-93.0129
-93.2516
-93.5399
-93.879
-94.2711
-94.7164
-95.2058
-95.7181
-96.1774
-96.2762
-94.5546
-92.9392
-92.983
-93.0709
-93.2035
-93.381
-93.6037
-93.8714
-94.1842
-94.5429
-94.9457
-95.3815
-95.8331
-96.2738
-96.7598
-98.3238
-93.3019
-93.3428
-93.4249
-93.5484
-93.7134
-93.9197
-94.1665
-94.4535
-94.7809
-95.1469
-95.5419
-95.9518
-96.3338
-96.4906
-95.1804
-93.6322
-93.6702
-93.7462
-93.8604
-94.0127
-94.2025
-94.4288
-94.6909
-94.989
-95.3227
-95.6874
-96.0861
-96.5454
-97.2362
-99.313
-93.9321
-93.9671
-94.037
-94.142
-94.2817
-94.4552
-94.6613
-94.8992
-95.1692
-95.4718
-95.805
-96.1746
-96.5914
-97.0154
-96.8205
-94.2038
-94.2357
-94.2997
-94.3956
-94.5228
-94.6805
-94.8669
-95.0812
-95.3237
-95.5947
-95.8928
-96.2267
-96.6277
-97.2204
-98.6501
-94.4492
-94.4782
-94.5364
-94.6234
-94.7386
-94.8808
-95.0483
-95.2398
-95.4552
-95.6938
-95.9515
-96.2286
-96.5263
-96.8406
-97.132
-94.6703
-94.6966
-94.7491
-94.8276
-94.9312
-95.0587
-95.2082
-95.378
-95.5674
-95.7745
-95.9923
-96.2124
-96.409
-96.4727
-95.8743
-94.8693
-94.8929
-94.94
-95.0103
-95.103
-95.2167
-95.3492
-95.4987
-95.6641
-95.843
-96.0272
-96.2091
-96.3793
-96.5609
-97.1293
-95.0478
-95.0689
-95.111
-95.1736
-95.2561
-95.3567
-95.4735
-95.6045
-95.7485
-95.9029
-96.0596
-96.2102
-96.3371
-96.3767
-95.9658
-95.2077
-95.2264
-95.2637
-95.3193
-95.3921
-95.4808
-95.5832
-95.6975
-95.8226
-95.9564
-96.0918
-96.2243
-96.3512
-96.5015
-96.9936
-95.3507
-95.3672
-95.4001
-95.4489
-95.513
-95.5906
-95.6799
-95.7792
-95.8876
-96.0038
-96.1219
-96.2387
-96.3445
-96.3854
-96.0006
-95.4782
-95.4927
-95.5215
-95.5642
-95.6201
-95.6877
-95.7651
-95.8507
-95.9442
-96.0449
-96.1489
-96.2572
-96.3786
-96.5613
-97.1326
-95.5918
-95.6044
-95.6294
-95.6665
-95.7149
-95.7733
-95.8397
-95.9129
-95.9928
-96.0791
-96.1686
-96.2631
-96.3657
-96.4638
-96.382
-95.6927
-95.7035
-95.7251
-95.757
-95.7986
-95.8485
-95.905
-95.9667
-96.0339
-96.1063
-96.1808
-96.2598
-96.3515
-96.4876
-96.8422
-95.7821
-95.7914
-95.8098
-95.837
-95.8724
-95.9146
-95.9619
-96.0131
-96.0683
-96.1271
-96.1858
-96.2442
-96.3022
-96.3561
-96.3932
-95.8612
-95.869
-95.8846
-95.9075
-95.9373
-95.9724
-96.0114
-96.053
-96.0972
-96.1434
-96.187
-96.2255
-96.2514
-96.2328
-96.0257
-95.931
-95.9375
-95.9504
-95.9695
-95.9941
-96.023
-96.0544
-96.0874
-96.1217
-96.1567
-96.1876
-96.212
-96.2271
-96.2368
-96.3409
-95.9923
-95.9977
-96.0083
-96.0239
-96.0439
-96.0671
-96.0918
-96.1171
-96.1427
-96.1681
-96.1886
-96.2016
-96.2022
-96.1716
-96.0133
-96.0461
-96.0504
-96.0589
-96.0714
-96.0873
-96.1054
-96.1243
-96.1428
-96.161
-96.1784
-96.1906
-96.1963
-96.1946
-96.1915
-96.2707
-96.0929
-96.0963
-96.103
-96.1128
-96.125
-96.1387
-96.1524
-96.165
-96.1767
-96.1874
-96.1931
-96.1927
-96.1838
-96.1506
-95.9992
-96.1336
-96.1361
-96.1412
-96.1485
-96.1577
-96.1674
-96.1765
-96.184
-96.1903
-96.1953
-96.1957
-96.1916
-96.1855
-96.1882
-96.285
-96.1686
-96.1704
-96.1741
-96.1793
-96.1857
-96.1921
-96.1972
-96.2003
-96.2018
-96.2018
-96.1972
-96.1886
-96.1767
-96.157
-96.086
-96.1985
-96.1997
-96.2021
-96.2055
-96.2095
-96.213
-96.2147
-96.214
-96.2113
-96.2069
-96.1976
-96.1843
-96.169
-96.1579
-96.1938
-96.2236
-96.2243
-96.2257
-96.2276
-96.2295
-96.2305
-96.2293
-96.2253
-96.219
-96.2105
-96.1968
-96.1779
-96.154
-96.1227
-96.0807
-96.2445
-96.2447
-96.2452
-96.2458
-96.2461
-96.245
-96.2414
-96.2346
-96.2251
-96.2132
-96.1955
-96.1716
-96.1399
-96.0915
-95.9934
-96.2613
-96.2612
-96.261
-96.2605
-96.2594
-96.2566
-96.2511
-96.242
-96.2301
-96.2153
-96.1945
-96.1672
-96.133
-96.0913
-96.0636
-96.2743
-96.2739
-96.2732
-96.272
-96.2698
-96.2657
-96.2586
-96.2478
-96.2339
-96.2171
-96.1939
-96.1641
-96.127
-96.0777
-95.9991
-96.2838
-96.2832
-96.2821
-96.2802
-96.2773
-96.2723
-96.2641
-96.2521
-96.2368
-96.2185
-96.1938
-96.1627
-96.1252
-96.081
-96.044
-96.2897
-96.2891
-96.2877
-96.2855
-96.2821
-96.2766
-96.2677
-96.255
-96.2389
-96.2197
-96.1942
-96.1622
-96.1237
-96.0756
-96.0094
-96.2923
-96.2916
-96.2902
-96.2879
-96.2843
-96.2786
-96.2695
-96.2565
-96.2401
-96.2207
-96.1949
-96.1628
-96.1246
-96.0791
-96.0322
-96.2916
-96.2909
-96.2896
-96.2874
-96.2839
-96.2783
-96.2695
-96.2567
-96.2406
-96.2214
-96.196
-96.1643
-96.1263
-96.0802
-96.0289
-96.2875
-96.287
-96.2858
-96.2839
-96.2809
-96.2758
-96.2676
-96.2555
-96.2401
-96.2219
-96.1974
-96.1667
-96.1293
-96.0812
-96.0137
-96.28
-96.2796
-96.2788
-96.2775
-96.2752
-96.271
-96.2637
-96.2528
-96.2388
-96.2219
-96.1991
-96.1703
-96.1355
-96.0921
-96.0378
-96.2689
-96.2688
-96.2685
-96.268
-96.2667
-96.2637
-96.2579
-96.2486
-96.2364
-96.2215
-96.2008
-96.1746
-96.1433
-96.1071
-96.0792
-96.2541
-96.2543
-96.2547
-96.2552
-96.2552
-96.2539
-96.25
-96.2428
-96.2329
-96.2205
-96.2024
-96.1789
-96.1503
-96.1127
-96.0482
-96.2352
-96.2359
-96.2371
-96.2389
-96.2406
-96.2413
-96.2398
-96.2352
-96.2281
-96.2187
-96.2037
-96.1835
-96.1591
-96.1335
-96.1355
-96.2121
-96.2132
-96.2156
-96.2188
-96.2226
-96.2257
-96.227
-96.2257
-96.222
-96.2161
-96.2046
-96.1874
-96.1646
-96.1314
-96.0555
-96.1842
-96.186
-96.1896
-96.1947
-96.2008
-96.2069
-96.2116
-96.214
-96.2145
-96.2128
-96.2054
-96.1918
-96.173
-96.1555
-96.2015
-96.1513
-96.1538
-96.1588
-96.166
-96.175
-96.1845
-96.1932
-96.2001
-96.2055
-96.2089
-96.2063
-96.1964
-96.176
-96.132
-95.9968
-96.1128
-96.1162
-96.1228
-96.1324
-96.1446
-96.158
-96.1714
-96.1836
-96.1948
-96.2045
-96.2084
-96.2048
-96.1913
-96.1681
-96.1912
-96.0681
-96.0724
-96.0809
-96.0933
-96.1091
-96.1271
-96.1457
-96.1641
-96.1821
-96.1994
-96.2116
-96.2166
-96.209
-96.1686
-96.013
-96.0166
-96.0219
-96.0325
-96.0481
-96.068
-96.091
-96.1158
-96.1411
-96.167
-96.1932
-96.2157
-96.2336
-96.2451
-96.2453
-96.2259
-95.9575
-95.964
-95.9769
-95.996
-96.0205
-96.0493
-96.0808
-96.1139
-96.1487
-96.1849
-96.2191
-96.2515
-96.2849
-96.3321
-96.4807
-95.8901
-95.8978
-95.9134
-95.9363
-95.966
-96.0011
-96.0401
-96.0818
-96.1263
-96.1734
-96.2196
-96.2653
-96.3109
-96.3449
-96.2684
-95.8133
-95.8225
-95.8409
-95.8681
-95.9034
-95.9456
-95.9929
-96.0442
-96.0992
-96.1578
-96.2163
-96.2756
-96.3405
-96.431
-96.684
-95.7262
-95.737
-95.7585
-95.7904
-95.832
-95.8819
-95.9384
-96.0001
-96.0667
-96.1375
-96.2083
-96.2787
-96.3481
-96.4006
-96.2849
-95.6277
-95.6402
-95.6652
-95.7022
-95.7506
-95.809
-95.8756
-95.9488
-96.0282
-96.1125
-96.1965
-96.2789
-96.363
-96.4836
-96.9071
-95.5166
-95.531
-95.5597
-95.6023
-95.6582
-95.7258
-95.8035
-95.8896
-95.9833
-96.0829
-96.1818
-96.2745
-96.3481
-96.3526
-95.999
-95.3916
-95.408
-95.4407
-95.4894
-95.5533
-95.631
-95.7209
-95.8212
-95.9313
-96.049
-96.1674
-96.2798
-96.3769
-96.4665
-96.7818
-95.2513
-95.2698
-95.3068
-95.362
-95.4345
-95.5232
-95.6263
-95.7424
-95.8708
-96.0099
-96.1529
-96.2922
-96.4067
-96.42
-95.9917
-95.0942
-95.115
-95.1565
-95.2186
-95.3004
-95.4008
-95.5181
-95.6512
-95.7998
-95.9633
-96.1369
-96.3181
-96.5022
-96.6764
-96.8089
-94.9187
-94.9419
-94.9883
-95.0575
-95.1491
-95.2619
-95.3943
-95.5454
-95.7155
-95.9049
-96.1114
-96.3386
-96.6003
-96.9581
-97.7748
-94.7231
-94.7488
-94.8002
-94.8771
-94.9789
-95.1046
-95.2527
-95.4225
-95.6146
-95.8299
-96.0672
-96.3314
-96.6271
-96.9174
-96.8003
-94.5058
-94.5341
-94.5907
-94.6755
-94.7879
-94.927
-95.0914
-95.2803
-95.4944
-95.7346
-96.0002
-96.2988
-96.6534
-97.1559
-98.3659
-94.2648
-94.2958
-94.3578
-94.4508
-94.5742
-94.7272
-94.9083
-95.1169
-95.353
-95.6169
-95.906
-96.2235
-96.5724
-96.8992
-96.5958
-93.9983
-94.0321
-94.0996
-94.2009
-94.3357
-94.503
-94.7015
-94.9303
-95.1891
-95.4767
-95.7878
-96.1229
-96.502
-97.0765
-98.9061
-93.7045
-93.741
-93.8141
-93.924
-94.0703
-94.2523
-94.4689
-94.719
-95.002
-95.3152
-95.6487
-95.9878
-96.2914
-96.3784
-95.1214
-93.3813
-93.4206
-93.4993
-93.6177
-93.7757
-93.9728
-94.2081
-94.4809
-94.7908
-95.1347
-95.5013
-95.8736
-96.2264
-96.6096
-97.9458
-93.0269
-93.0689
-93.1532
-93.2801
-93.4498
-93.6621
-93.9166
-94.2132
-94.5526
-94.9333
-95.3456
-95.7691
-96.1357
-96.1748
-94.6014
-92.6393
-92.684
-92.7737
-92.9088
-93.0899
-93.3172
-93.5909
-93.9118
-94.2825
-94.705
-95.1776
-95.7003
-96.2674
-96.8556
-97.3791
-92.2168
-92.264
-92.3587
-92.5017
-92.6937
-92.9354
-93.2275
-93.572
-93.9731
-94.4368
-94.9704
-95.5965
-96.3797
-97.577
-100.58
-91.7577
-91.8071
-91.9064
-92.0566
-92.2587
-92.5138
-92.8229
-93.1889
-93.6169
-94.115
-94.6943
-95.3798
-96.1994
-97.0404
-96.4724
-91.2603
-91.3117
-91.415
-91.5716
-91.7827
-92.0497
-92.3741
-92.7587
-93.2086
-93.7319
-94.3398
-95.0659
-95.9991
-97.4779
-101.483
-90.7233
-90.7763
-90.883
-91.0448
-91.2636
-91.541
-91.8786
-92.2791
-92.7463
-93.2847
-93.8986
-94.6041
-95.4151
-96.1563
-94.7727
-90.1458
-90.1998
-90.3089
-90.4747
-90.6995
-90.9855
-91.3347
-91.7493
-92.2311
-92.7798
-93.3894
-94.0648
-94.8743
-96.3057
-101.724
-89.5268
-89.5814
-89.6916
-89.8598
-90.0887
-90.3814
-90.7407
-91.1688
-91.6664
-92.2274
-92.8298
-93.4283
-93.8966
-93.6817
-89.3201
-88.8663
-88.9205
-89.0305
-89.1989
-89.4295
-89.7264
-90.094
-90.5361
-91.0543
-91.6413
-92.2681
-92.8782
-93.388
-93.9329
-97.1246
-88.1643
-88.2173
-88.3251
-88.4911
-88.72
-89.0177
-89.3908
-89.8466
-90.3912
-91.0223
-91.7136
-92.3935
-92.8499
-92.3413
-87.4776
-87.4218
-87.4724
-87.5757
-87.7358
-87.9586
-88.2519
-88.6255
-89.0917
-89.665
-90.3562
-91.1626
-92.0599
-92.9766
-93.7696
-94.239
-86.6405
-86.6874
-86.7835
-86.9334
-87.1442
-87.4257
-87.7911
-88.2588
-88.8537
-89.6053
-90.5438
-91.7086
-93.1842
-95.4178
-101.384
-85.823
-85.8646
-85.9503
-86.0851
-86.2768
-86.5367
-86.8811
-87.3339
-87.9305
-88.7196
-89.7633
-91.1376
-92.8601
-94.4687
-92.4478
-84.9732
-85.0078
-85.0796
-85.1937
-85.358
-85.5846
-85.8913
-86.3056
-86.8707
-87.6522
-88.749
-90.3209
-92.6101
-96.0357
-102.447
-84.0958
-84.1218
-84.1763
-84.2639
-84.3921
-84.5725
-84.8223
-85.1692
-85.6579
-86.3612
-87.4004
-89.0021
-91.5659
-95.5249
-98.692
-83.1969
-83.2128
-83.2467
-83.3024
-83.3863
-83.5079
-83.6817
-83.9309
-84.2935
-84.8321
-85.6571
-87.0118
-89.5477
-95.5602
-115.45
-115.095
-95.0814
-88.9178
-86.3299
-84.9843
-84.1937
-83.6964
-83.3727
-83.1574
-83.0118
-82.9127
-82.8461
-82.8029
-82.7772
-82.7652
-99.2528
-94.9638
-90.722
-88.1396
-86.5984
-85.6338
-84.9993
-84.5678
-84.2669
-84.0534
-83.9011
-83.7937
-83.7211
-83.6761
-83.6547
-101.4
-94.809
-91.3695
-89.223
-87.8076
-86.8401
-86.1586
-85.6689
-85.3117
-85.0484
-84.8543
-84.7139
-84.6166
-84.5555
-84.526
-93.2206
-92.4604
-91.1148
-89.7951
-88.7013
-87.8434
-87.1815
-86.6747
-86.2871
-85.9909
-85.7665
-85.6006
-85.4838
-85.4095
-85.3733
-85.6243
-90.5134
-90.8376
-90.2064
-89.4266
-88.7058
-88.0937
-87.5943
-87.1947
-86.8791
-86.6341
-86.4497
-86.318
-86.2335
-86.1921
-94.969
-91.7316
-91.2193
-90.717
-90.1062
-89.488
-88.9246
-88.441
-88.0396
-87.7138
-87.4557
-87.2584
-87.1161
-87.0239
-86.9787
-86.3397
-91.0524
-91.5893
-91.2992
-90.7861
-90.2274
-89.6968
-89.2271
-88.8275
-88.4968
-88.231
-88.0254
-87.8757
-87.7783
-87.7303
-97.3668
-93.2681
-92.529
-92.0323
-91.4928
-90.9425
-90.4234
-89.9607
-89.563
-89.2303
-88.9602
-88.7497
-88.5955
-88.4947
-88.4448
-88.4285
-93.1455
-93.2956
-92.791