/*--------------------------------*- C++ -*----------------------------------*\
| =========                 |                                                 |
| \\      /  F ield         | OpenFOAM: The Open Source CFD Toolbox           |
|  \\    /   O peration     | Version:  5.x                                   |
|   \\  /    A nd           | Web:      www.OpenFOAM.org                      |
|    \\/     M anipulation  |                                                 |
\*---------------------------------------------------------------------------*/
FoamFile
{
    version     2.0;
    format      ascii;
    class       volScalarField;
    location    "0.3";
    object      gradTy;
}
// * * * * * * * * * * * * * * * * * * * * * * * * * * * * * * * * * * * * * //

dimensions      [0 -1 0 1 0 0 0];

internalField   nonuniform List<scalar> 
6300
(
32264.6
32193.8
32123.2
32052.8
31982.9
31913.5
31844.7
31776.7
31709.6
31643.5
31578.6
31514.9
31452.6
31391.8
31332.6
-0.0832352
-0.250158
-0.418384
-0.58865
-0.761508
-0.93722
-1.11566
-1.29626
-1.47788
-1.65885
-1.8369
-2.00937
-2.1733
-2.32581
-2.46434
-0.138207
-0.415408
-0.69492
-0.978068
-1.26585
-1.55881
-1.85683
-2.15903
-2.46359
-2.76765
-3.06737
-3.35803
-3.63442
-3.89136
-4.12429
-0.192375
-0.578309
-0.967737
-1.36271
-1.76485
-2.1751
-2.59356
-3.01916
-3.44946
-3.88045
-4.3065
-4.72056
-5.11459
-5.48047
-5.81105
-0.245317
-0.737631
-1.23488
-1.74002
-2.25549
-2.78292
-3.32282
-3.87421
-4.43421
-4.99769
-5.5571
-6.10252
-6.62231
-7.10431
-7.53764
-0.296551
-0.891913
-1.49395
-2.10675
-2.73384
-3.37786
-4.04013
-4.72012
-5.41488
-6.11836
-6.82095
-7.50929
-8.16688
-8.77577
-9.31941
-0.345493
-1.03941
-1.74205
-2.4589
-3.19492
-3.95414
-4.7392
-5.55067
-6.38613
-7.23914
-8.09816
-8.94579
-9.75903
-10.5112
-11.1767
-0.391443
-1.17804
-1.97569
-2.79156
-3.63236
-4.50404
-5.41124
-6.35649
-7.33897
-8.35291
-9.38559
-10.4154
-11.4107
-12.3318
-13.1373
-0.43363
-1.30544
-2.19086
-3.09892
-4.03844
-5.01783
-6.04454
-7.12424
-8.25935
-9.44676
-10.6745
-11.9178
-13.1347
-14.266
-15.2427
-0.471219
-1.41905
-2.38312
-3.37443
-4.40417
-5.48367
-6.62407
-7.83564
-9.12629
-10.4989
-11.9464
-13.4446
-14.9422
-16.3525
-17.5573
-0.503356
-1.51625
-2.54785
-3.61108
-4.71959
-5.8879
-7.13157
-8.46689
-9.91001
-11.4744
-13.1656
-14.9698
-16.8348
-18.642
-20.1873
-0.529247
-1.59457
-2.68063
-3.80203
-4.97461
-6.21604
-7.54646
-8.98916
-10.571
-12.3215
-14.2697
-16.432
-18.7827
-21.1908
-23.3185
-0.548239
-1.65197
-2.77775
-3.94134
-5.16018
-6.4544
-7.84807
-9.37106
-11.0615
-12.9691
-15.1577
-17.7033
-20.6706
-24.017
-27.2998
-0.559917
-1.68711
-2.83674
-4.02492
-5.26975
-6.59248
-8.01929
-9.58413
-11.3334
-13.3338
-15.6866
-18.5508
-22.1764
-26.9034
-32.7837
-0.564169
-1.69964
-2.85685
-4.0514
-5.30082
-6.62568
-8.05144
-9.61145
-11.3523
-13.3442
-15.702
-18.6345
-22.5781
-28.6322
-40.2749
31279.8
31233.1
31187.6
31143.5
31100.7
31059.2
31019.2
30980.5
30943.3
30907.4
30873
30840
30808.4
30778.2
30749.4
30721.9
30695.7
30670.8
30647.1
30624.6
30603.2
30583
30563.8
30545.5
30528.3
30511.9
30496.4
30481.6
30467.6
30454.3
30441.7
30429.6
30418.1
30407
30396.5
30386.3
30376.5
30367.1
30357.9
30349
30340.3
30331.7
30323.3
30315
30306.8
30298.5
30290.3
30282
30273.7
30265.2
30256.6
30247.8
30238.7
30229.4
30219.8
30209.8
30199.4
30188.6
30177.3
30165.5
30153.1
30140
30126.3
30111.9
30096.7
30080.7
30063.8
30045.9
30027.1
30007.3
29986.4
29964.3
29941.1
29916.6
29890.9
29863.8
29835.5
29805.7
29774.5
29741.8
29707.7
29672.1
29635.1
29596.5
29556.5
29514.9
29472
29427.6
29381.8
29334.7
-2.57678
-2.66735
-2.74611
-2.8132
-2.86893
-2.91366
-2.94765
-2.97097
-2.98349
-2.98493
-2.97497
-2.95337
-2.92012
-2.87545
-2.81992
-2.75431
-2.67962
-2.59693
-2.50736
-2.41204
-2.31202
-2.20834
-2.10197
-1.9938
-1.8847
-1.77544
-1.66669
-1.55903
-1.45295
-1.34883
-1.24696
-1.14755
-1.05073
-0.956555
-0.864994
-0.775965
-0.689329
-0.604909
-0.522497
-0.441871
-0.362789
-0.284993
-0.208207
-0.132132
-0.0564523
0.0191635
0.0950474
0.171522
0.248889
0.327421
0.407358
0.488907
0.572245
0.65752
0.744856
0.834345
0.926051
1.02001
1.11622
1.21466
1.31527
1.41796
1.52259
1.62895
1.73678
1.8457
1.95525
2.06488
2.17395
2.28175
2.3875
2.49036
2.58942
2.68366
2.77201
2.85333
2.92649
2.99035
3.04392
3.08625
3.11655
3.13407
3.13812
3.12799
3.103
3.06255
3.00621
2.93381
2.84559
2.74223
-4.31277
-4.4641
-4.59521
-4.70654
-4.79888
-4.87305
-4.92961
-4.96872
-4.99006
-4.99299
-4.97677
-4.94083
-4.88503
-4.80974
-4.71593
-4.60503
-4.47882
-4.33921
-4.18818
-4.0276
-3.85929
-3.68495
-3.5062
-3.32458
-3.14152
-2.95833
-2.77615
-2.59596
-2.41854
-2.24454
-2.07442
-1.90854
-1.74709
-1.59016
-1.43769
-1.28952
-1.14541
-1.00504
-0.868039
-0.734042
-0.602646
-0.473424
-0.345919
-0.21963
-0.0940181
0.0314826
0.157446
0.284426
0.412941
0.543448
0.676349
0.811985
0.950648
1.09258
1.238
1.38705
1.53984
1.69643
1.85682
2.02098
2.18881
2.36018
2.53488
2.7126
2.8929
3.07516
3.25863
3.44235
3.62525
3.80614
3.98373
4.15663
4.32331
4.4821
4.63115
4.76851
4.89219
5.00027
5.091
5.16286
5.21454
5.24488
5.25273
5.23693
5.19626
5.12955
5.03591
4.91492
4.76682
4.59273
-6.07704
-6.28935
-6.47217
-6.62663
-6.75442
-6.85724
-6.93624
-6.99165
-7.0228
-7.02835
-7.00675
-6.95676
-6.8779
-6.77066
-6.63653
-6.47782
-6.29733
-6.09802
-5.8828
-5.6544
-5.41535
-5.16802
-4.9147
-4.65757
-4.39868
-4.13992
-3.88292
-3.62904
-3.37938
-3.13479
-2.89594
-2.66327
-2.43709
-2.21746
-2.00432
-1.79737
-1.59623
-1.4004
-1.20936
-1.02256
-0.839452
-0.659457
-0.481943
-0.306207
-0.13147
0.043099
0.21835
0.395103
0.574109
0.756025
0.941406
1.13072
1.32436
1.52267
1.72594
1.9344
2.1482
2.36742
2.59206
2.82205
3.0573
3.29765
3.54286
3.79256
4.04619
4.30291
4.56162
4.82097
5.07939
5.33521
5.58663
5.83174
6.06845
6.29439
6.50693
6.70316
6.88011
7.03489
7.16496
7.2682
7.34293
7.38769
7.40104
7.38131
7.3266
7.23492
7.10458
6.93459
6.72508
6.47749
-7.88328
-8.15654
-8.38948
-8.5846
-8.7454
-8.87526
-8.97635
-9.04909
-9.09206
-9.10254
-9.07743
-9.01417
-8.91161
-8.77032
-8.59262
-8.38212
-8.14311
-7.87995
-7.59666
-7.29681
-6.98362
-6.66005
-6.32903
-5.99342
-5.65601
-5.31933
-4.98554
-4.65639
-4.33323
-4.01712
-3.70884
-3.40898
-3.1179
-2.83571
-2.56225
-2.29709
-2.03959
-1.78906
-1.54473
-1.3059
-1.0719
-0.84202
-0.615489
-0.391403
-0.168718
0.0537199
0.2771
0.502565
0.73114
0.963685
1.2009
1.44333
1.69148
1.94576
2.20658
2.47424
2.74897
3.03084
3.31982
3.61582
3.91871
4.22837
4.54463
4.86714
5.19528
5.52804
5.86395
6.20113
6.5375
6.8708
7.19877
7.51908
7.82916
8.12603
8.40618
8.66555
8.89986
9.10497
9.27736
9.41439
9.51422
9.57546
9.59664
9.5757
9.5098
9.39559
9.22994
9.01075
8.73764
8.41237
-9.74732
-10.0806
-10.36
-10.5906
-10.7796
-10.9333
-11.0559
-11.148
-11.2067
-11.2267
-11.2018
-11.1271
-11.0001
-10.8216
-10.5952
-10.3268
-10.0231
-9.69041
-9.33398
-8.95817
-8.56659
-8.16264
-7.74983
-7.33182
-6.91229
-6.49459
-6.08152
-5.67517
-5.27705
-4.88826
-4.50971
-4.14213
-3.78601
-3.44151
-3.10835
-2.78585
-2.47305
-2.16886
-1.87227
-1.58239
-1.29848
-1.01982
-0.745569
-0.47463
-0.205644
0.0629586
0.332831
0.605546
0.882461
1.16464
1.45288
1.74776
2.0498
2.35951
2.67741
3.00399
3.33952
3.68408
4.03755
4.39971
4.77042
5.14964
5.5374
5.9336
6.33771
6.74858
7.16431
7.58234
7.9998
8.41379
8.82163
9.22075
9.60841
9.98121
10.3347
10.6633
10.9608
11.2213
11.4397
11.6131
11.7399
11.8197
11.8516
11.8335
11.7612
11.6289
11.431
11.1631
10.8239
10.4153
-11.6902
-12.0806
-12.3988
-12.6551
-12.8627
-13.0342
-13.1773
-13.2929
-13.3751
-13.4134
-13.396
-13.3135
-13.1612
-12.9401
-12.6568
-12.3212
-11.9439
-11.534
-11.0984
-10.6415
-10.1668
-9.6775
-9.17769
-8.67206
-8.16562
-7.66298
-7.16767
-6.682
-6.20733
-5.74461
-5.29476
-4.85875
-4.43739
-4.03097
-3.6391
-3.26066
-2.89411
-2.53775
-2.19013
-1.85026
-1.51748
-1.19126
-0.870851
-0.555012
-0.241983
0.0704146
0.384526
0.702547
1.02628
1.35697
1.69539
2.04199
2.39718
2.76156
3.1359
3.52095
3.9172
4.32464
4.74288
5.17142
5.60998
6.0587
6.5181
6.98868
7.47038
7.96208
8.46124
8.96421
9.46684
9.96531
10.4566
10.9384
11.4084
11.8634
12.2982
12.7049
13.0741
13.3967
13.6656
13.8772
14.0317
14.131
14.1767
14.1674
14.0967
13.9547
13.7305
13.4161
13.008
12.5082
-13.7409
-14.1824
-14.5248
-14.7872
-14.9955
-15.1738
-15.3363
-15.4838
-15.6044
-15.678
-15.6819
-15.5985
-15.4192
-15.1465
-14.7923
-14.3742
-13.9101
-13.4136
-12.8924
-12.3497
-11.7871
-11.2069
-10.6134
-10.013
-9.41313
-8.82052
-8.23971
-7.67281
-7.1203
-6.58237
-6.05983
-5.55424
-5.06722
-4.59948
-4.15048
-3.71838
-3.3005
-2.89404
-2.49687
-2.10791
-1.72701
-1.35433
-0.989527
-0.631322
-0.277381
0.0754374
0.43063
0.791385
1.16013
1.53825
1.92622
2.32395
2.73145
3.14939
3.57906
4.02193
4.47887
4.94976
5.43351
5.9288
6.43498
6.95246
7.48273
8.02771
8.58862
9.1647
9.75253
10.3463
10.9395
11.5268
12.1047
12.6723
13.2292
13.7739
14.3009
14.7991
15.2533
15.6479
15.9721
16.2219
16.4008
16.5172
16.579
16.5872
16.5325
16.3962
16.1575
15.8014
15.3215
14.7203
-15.9438
-16.4243
-16.7635
-16.9949
-17.1691
-17.3343
-17.5151
-17.712
-17.9003
-18.0418
-18.0927
-18.0207
-17.811
-17.4696
-17.0191
-16.4929
-15.9229
-15.3286
-14.7173
-14.0866
-13.433
-12.7557
-12.0594
-11.3535
-10.6505
-9.96141
-9.29206
-8.64328
-8.01264
-7.39835
-6.80086
-6.22339
-5.66963
-5.14135
-4.63786
-4.15589
-3.69071
-3.23722
-2.79204
-2.35415
-1.92488
-1.50621
-1.09882
-0.701577
-0.311225
0.0770006
0.468707
0.868733
1.28051
1.70541
2.14311
2.59198
3.05088
3.52055
4.00346
4.50288
5.02073
5.55666
6.10781
6.67082
7.24401
7.82809
8.42649
9.04404
9.68523
10.3506
11.0354
11.7293
12.4208
13.1015
13.7676
14.4212
15.0671
15.7096
16.3444
16.9559
17.5171
17.9996
18.3847
18.6673
18.8586
18.9804
19.0567
19.0959
19.084
18.9834
18.752
18.3635
17.808
17.0914
-18.3702
-18.8674
-19.1551
-19.2826
-19.3537
-19.4699
-19.6692
-19.9511
-20.2626
-20.5356
-20.6798
-20.6411
-20.3923
-19.95
-19.3552
-18.6751
-17.971
-17.2688
-16.5708
-15.8571
-15.1138
-14.3327
-13.5202
-12.6908
-11.8687
-11.0748
-10.3157
-9.58849
-8.88228
-8.19093
-7.51389
-6.85914
-6.23607
-5.6482
-5.09489
-4.56981
-4.06463
-3.56894
-3.07716
-2.58836
-2.10787
-1.64216
-1.19375
-0.762125
-0.342171
0.0734322
0.494726
0.929129
1.38198
1.85423
2.344
2.84575
3.35499
3.87289
4.40438
4.95764
5.53696
6.14203
6.76548
7.39863
8.03784
8.68357
9.34316
10.0268
10.7475
11.509
12.3054
13.1161
13.918
14.6973
15.4487
16.1811
16.9098
17.656
18.4211
19.1845
19.8937
20.491
20.9441
21.2429
21.4155
21.508
21.5866
21.677
21.762
21.7574
21.5716
21.165
20.5254
19.6763
-21.1419
-21.6098
-21.7749
-21.6491
-21.4705
-21.4827
-21.7009
-22.1436
-22.6769
-23.2111
-23.5271
-23.561
-23.2496
-22.6476
-21.8117
-20.89
-20.0145
-19.2016
-18.4456
-17.6694
-16.8481
-15.9541
-15.0047
-14.0173
-13.046
-12.138
-11.2933
-10.5033
-9.73047
-8.9629
-8.19478
-7.44929
-6.75186
-6.10531
-5.51131
-4.95512
-4.42491
-3.89506
-3.35798
-2.81061
-2.26956
-1.75316
-1.26447
-0.805828
-0.366795
0.0617495
0.501965
0.963079
1.45566
1.97795
2.52782
3.08891
3.64683
4.20587
4.77421
5.37515
6.01639
6.70125
7.40948
8.11803
8.82258
9.51935
10.2254
10.9564
11.751
12.6174
13.5546
14.5156
15.4474
16.3331
17.1565
17.9458
18.7262
19.5742
20.4988
21.4898
22.4295
23.1878
23.723
23.9979
24.0848
24.0523
24.0962
24.2623
24.5652
24.7887
24.7051
24.298
23.5404
22.5513
-24.4865
-24.7845
-24.8098
-24.0873
-23.3089
-23.195
-23.406
-24.2026
-25.0868
-26.1979
-26.7779
-26.976
-26.5232
-25.6803
-24.3903
-23.037
-21.9666
-21.0517
-20.3489
-19.5461
-18.687
-17.6553
-16.5438
-15.3208
-14.1324
-13.11
-12.1926
-11.3939
-10.5714
-9.73606
-8.84346
-7.97058
-7.19467
-6.48704
-5.87357
-5.30331
-4.78493
-4.23183
-3.65386
-3.02395
-2.39589
-1.82435
-1.292
-0.821317
-0.376337
0.0332542
0.479117
0.951759
1.4866
2.06209
2.69563
3.33685
3.93734
4.52578
5.09739
5.73497
6.43338
7.22723
8.05347
8.84366
9.61899
10.3422
11.0722
11.7949
12.6515
13.6239
14.7697
15.9575
17.0433
18.0583
18.9135
19.7225
20.4448
21.3809
22.4798
23.8675
25.2252
26.2037
26.8749
27.0211
26.9232
26.4836
26.4266
26.6472
27.4791
28.2585
28.3009
27.9323
26.8851
25.8491
-28.9273
-28.347
-28.9164
-26.6017
-24.186
-24.4354
-24.2639
-26.1322
-27.1672
-29.9471
-30.577
-31.3266
-30.3575
-29.3558
-27.0593
-24.7758
-23.6947
-22.5964
-22.3964
-21.5041
-20.7753
-19.4723
-18.2443
-16.5755
-14.9804
-13.9316
-12.9217
-12.3196
-11.4316
-10.5925
-9.46453
-8.35291
-7.53981
-6.73379
-6.17414
-5.57735
-5.19544
-4.60494
-4.02498
-3.23502
-2.44112
-1.83932
-1.2309
-0.799931
-0.335038
-0.0475705
0.417618
0.850822
1.45902
2.06272
2.85251
3.64368
4.2455
4.87023
5.32597
6.0076
6.7134
7.7071
8.74999
9.59132
10.4911
11.1561
11.9298
12.4413
13.3856
14.3812
15.9248
17.5467
18.7414
20.0138
20.7368
21.624
21.8552
22.9522
24.0438
26.2871
28.5653
29.6607
30.7806
30.3938
30.2509
28.3612
28.3537
28.1485
30.4652
32.7857
32.4849
32.54
30.2103
29.9122
-36.3292
-30.2496
-37.1713
-29.2566
-21.2203
-26.2769
-22.1793
-29.2569
-26.7301
-36.7885
-34.2
-38.1492
-34.236
-34.8935
-29.7076
-24.7814
-25.4458
-22.8463
-25.44
-23.2265
-23.6901
-21.1814
-20.5796
-17.7243
-15.0417
-14.6977
-13.0638
-13.6573
-12.2219
-11.8654
-10.0624
-8.30566
-7.87506
-6.62599
-6.5285
-5.54224
-5.90665
-4.96317
-4.69876
-3.45193
-2.20979
-1.86389
-0.914245
-0.827394
-0.0382237
-0.384337
0.402176
0.497893
1.43796
1.79546
3.00763
4.22346
4.52102
5.45841
5.22961
6.24585
6.57926
8.11669
9.7374
10.2555
11.7018
11.8141
13.1657
12.4647
14.0463
14.3498
16.9674
19.7513
20.3282
22.7603
22.3237
24.4695
22.018
24.5298
23.9479
28.6547
33.6068
33.0801
36.853
33.4122
36.0903
27.524
30.5611
26.0133
33.4406
41.0822
36.151
40.5766
30.6043
36.3682
-57.122
-13.425
-66.785
-32.0808
0.604913
-41.2951
-3.99706
-46.2074
-8.16613
-61.8381
-28.4059
-56.2918
-31.5308
-48.8449
-31.9806
-16.7352
-31.8959
-15.6172
-35.4067
-21.0941
-30.8864
-20.1456
-26.1614
-18.6251
-11.7361
-17.3219
-9.99934
-17.9177
-11.4595
-15.2225
-10.5947
-6.34924
-9.38949
-4.86033
-8.16327
-3.56258
-8.50195
-4.34409
-6.78787
-3.66245
-0.687978
-2.75799
0.644874
-1.86628
1.89346
-2.3523
1.38142
-1.07109
2.25578
0.297467
3.15772
6.126
3.87562
7.72648
3.34074
7.46788
4.71172
8.40709
12.3135
9.58419
14.8345
10.6886
17.3583
9.20178
16.5482
10.9863
17.7714
25.1351
19.2442
29.6389
20.1919
33.9356
15.0327
30.5613
16.2346
30.6674
46.5369
30.306
53.3115
27.6162
58.1185
9.97332
43.6861
6.62867
36.102
67.4786
26.3383
69.3408
8.3338
55.9523
29281.4
29221.5
29159.9
29096.8
29032.2
28966.3
28899.2
28831.1
28762.1
28692.3
28621.8
28550.9
28479.5
28407.8
28336
2.61317
2.45462
2.28171
2.09817
1.90776
1.71393
1.51959
1.32698
1.13766
0.952489
0.771751
0.595234
0.422355
0.252252
0.0838877
4.3748
4.10677
3.81442
3.50438
3.18322
2.85696
2.53058
2.20786
1.89136
1.58244
1.28145
0.987917
0.700759
0.418443
0.139141
6.16643
5.78297
5.3646
4.92147
4.46361
3.99996
3.53779
3.08245
2.6374
2.20435
1.78356
1.3741
0.974217
0.581546
0.193346
8.00155
7.4935
6.939
6.35283
5.74938
5.14113
4.53791
3.94658
3.3713
2.81389
2.27418
1.75056
1.24033
0.740088
0.246004
9.89528
9.2493
8.54397
7.80053
7.0391
6.27658
5.52557
4.79426
4.08712
3.40555
2.74858
2.11348
1.49631
0.892379
0.29655
11.8658
11.0626
10.1854
9.26473
8.32862
7.39937
6.4925
5.61702
4.77689
3.97234
3.20093
2.45831
1.73891
1.03648
0.344339
13.9365
12.9481
11.8685
10.7427
9.60981
8.49844
7.4267
6.40327
5.43025
4.50552
3.62421
2.77972
1.96442
1.17019
0.388645
16.1392
14.9235
13.5965
12.2266
10.8684
9.55698
8.31143
7.13782
6.03428
4.99458
4.01025
3.07166
2.16869
1.2911
0.428682
18.5178
17.0091
15.3664
13.698
12.0791
10.5493
9.12361
7.80135
6.57345
5.42748
4.35001
3.32764
2.34738
1.39672
0.463632
21.1374
19.2256
17.1591
15.1175
13.1983
11.4361
9.83153
8.36962
7.0298
5.79112
4.63411
3.54113
2.4962
1.48463
0.492714
24.1229
21.5933
18.9241
16.4124
14.158
12.1632
10.3954
8.81458
7.38397
6.07229
4.8536
3.70617
2.61137
1.55274
0.515258
27.7526
24.0987
20.5298
17.4481
14.8565
12.662
10.7707
9.10804
7.61811
6.25963
5.00123
3.81817
2.69009
1.59952
0.530784
32.6759
26.5149
21.6461
17.9909
15.1557
12.8561
10.9163
9.22743
7.71969
6.34604
5.0729
3.87474
2.73101
1.62429
0.539078
39.7278
27.6345
21.5461
17.7109
14.9168
12.6889
10.8095
9.16434
7.68603
6.33112
5.06902
3.87648
2.73463
1.62737
0.540251
-0.562011
-1.69269
-2.84358
-4.02912
-5.26526
-6.57041
-7.96681
-9.48276
-11.1566
-13.0438
-15.2308
-17.8639
-21.2101
-25.7791
-32.4001
-0.554914
-1.67074
-2.80477
-3.96977
-5.17957
-6.44949
-7.7971
-9.24311
-10.8127
-12.5368
-14.4522
-16.5919
-18.9317
-21.1325
-21.3665
-0.543613
-1.63606
-2.74427
-3.87907
-5.05174
-6.27408
-7.55832
-8.91675
-10.3605
-11.8961
-13.5167
-15.1794
-16.7476
-17.8498
-17.6084
-0.528655
-1.59034
-2.66513
-3.76182
-4.88908
-6.05518
-7.26733
-8.53031
-9.8436
-11.1955
-12.5509
-13.8309
-14.886
-15.4978
-15.5764
-0.510636
-1.53542
-2.57066
-3.62313
-4.69911
-5.80382
-6.94044
-8.10823
-9.29922
-10.4914
-11.6362
-12.6375
-13.331
-13.5148
-13.4726
-0.490155
-1.47315
-2.46409
-3.46793
-4.4889
-5.52986
-6.59128
-7.66945
-8.75349
-9.81969
-10.8198
-11.6572
-12.1287
-11.6875
-8.29136
-0.467786
-1.40529
-2.34847
-3.30068
-4.26453
-5.24127
-6.22992
-7.22601
-8.21981
-9.19338
-10.115
-10.9308
-11.5593
-11.9114
-12.267
-0.444054
-1.33342
-2.22647
-3.12522
-4.03101
-4.94405
-5.86284
-6.78359
-7.69988
-8.60288
-9.48265
-10.3341
-11.1812
-12.1323
-13.486
-0.419425
-1.25895
-2.10042
-2.94476
-3.79231
-4.64257
-5.49394
-6.34371
-7.18883
-8.02835
-8.86917
-9.74009
-10.7302
-12.0733
-14.3349
-0.394301
-1.18308
-1.97231
-2.76198
-3.55161
-4.34013
-5.12581
-5.90659
-6.68131
-7.45277
-8.23424
-9.06304
-10.0337
-11.3763
-13.7165
-0.36903
-1.10684
-1.84381
-2.57914
-3.3116
-4.03954
-4.76085
-5.47333
-6.17573
-6.87011
-7.56608
-8.28725
-9.07889
-9.9863
-10.827
-0.343913
-1.03112
-1.71639
-2.3982
-3.07467
-3.74348
-4.40188
-5.04683
-5.67549
-6.28625
-6.8802
-7.46243
-8.04358
-8.64274
-9.35428
-0.319208
-0.95669
-1.59131
-2.2209
-2.84299
-3.45459
-4.05218
-4.63151
-5.18754
-5.71401
-6.20235
-6.63836
-6.99582
-7.2213
-7.16351
-0.295136
-0.884215
-1.46965
-2.04876
-2.61853
-3.1754
-3.71511
-4.23233
-4.72005
-5.16825
-5.56083
-5.86892
-6.03985
-5.99682
-5.80848
-0.271882
-0.814244
-1.35233
-1.88306
-2.40298
-2.9081
-3.39365
-3.85362
-4.28
-4.66116
-4.97805
-5.19487
-5.23265
-4.87352
-3.31658
-0.249594
-0.74722
-1.2401
-1.72483
-2.19768
-2.6544
-3.08996
-3.49825
-3.87141
-4.19879
-4.46487
-4.64535
-4.70131
-4.58235
-4.35008
-0.228386
-0.683483
-1.1335
-1.57483
-2.00359
-2.41539
-2.80524
-3.16732
-3.49468
-3.77911
-4.01129
-4.1825
-4.29174
-4.37023
-4.54908
-0.208339
-0.623272
-1.03292
-1.43357
-1.82126
-2.19164
-2.53987
-2.86057
-3.14786
-3.39586
-3.60026
-3.76294
-3.90387
-4.08885
-4.47555
-0.189504
-0.566733
-0.938586
-1.30133
-1.65099
-1.98331
-2.29368
-2.57711
-2.82846
-3.04305
-3.21842
-3.35875
-3.48579
-3.66785
-4.11546
-0.171904
-0.513934
-0.850594
-1.17818
-1.49279
-1.79029
-2.06627
-2.31603
-2.53471
-2.71763
-2.86113
-2.96409
-3.02985
-3.06293
-3.01097
-0.155542
-0.464874
-0.768922
-1.06406
-1.34651
-1.61229
-1.85717
-2.07666
-2.26594
-2.41978
-2.53224
-2.59554
-2.59696
-2.51749
-2.38719
-0.1404
-0.419496
-0.69346
-0.958787
-1.21185
-1.44886
-1.66581
-1.85841
-2.02193
-2.15084
-2.23774
-2.27022
-2.22058
-2.0077
-1.32328
-0.126445
-0.377698
-0.624022
-0.86207
-1.0884
-1.29944
-1.49145
-1.66047
-1.80212
-1.91126
-1.98125
-2.0022
-1.95786
-1.8257
-1.62221
-0.113632
-0.339339
-0.560361
-0.773531
-0.975618
-1.16331
-1.33318
-1.48168
-1.60502
-1.69905
-1.75907
-1.77976
-1.75641
-1.69356
-1.64118
-0.101907
-0.304252
-0.502183
-0.692732
-0.872896
-1.03963
-1.18987
-1.3205
-1.42844
-1.51064
-1.56442
-1.58813
-1.58269
-1.55445
-1.51149
-0.0912073
-0.272248
-0.449163
-0.61919
-0.779559
-0.927501
-1.06027
-1.17522
-1.26986
-1.34213
-1.39088
-1.41699
-1.42506
-1.42588
-1.43556
-0.0814688
-0.243129
-0.400957
-0.552399
-0.694913
-0.825984
-0.94317
-1.04417
-1.12697
-1.19011
-1.23329
-1.25859
-1.27275
-1.29146
-1.34449
-0.0726238
-0.216691
-0.357217
-0.491853
-0.618271
-0.734188
-0.837408
-0.925895
-0.997884
-1.05211
-1.0883
-1.10813
-1.11753
-1.13349
-1.21156
-0.0646055
-0.19273
-0.317599
-0.437058
-0.548979
-0.651283
-0.741977
-0.819193
-0.881261
-0.926791
-0.954842
-0.96513
-0.957985
-0.93264
-0.869533
-0.057348
-0.171049
-0.28177
-0.387541
-0.48642
-0.576514
-0.655996
-0.723125
-0.776246
-0.813744
-0.833894
-0.834407
-0.811283
-0.758237
-0.68208
-0.0507877
-0.151456
-0.249408
-0.34285
-0.430016
-0.509184
-0.578682
-0.636889
-0.682193
-0.712868
-0.726738
-0.720254
-0.685534
-0.600064
-0.379746
-0.0448632
-0.133767
-0.220206
-0.302556
-0.379219
-0.448635
-0.50929
-0.559709
-0.598406
-0.623777
-0.633858
-0.625846
-0.595181
-0.535679
-0.45194
-0.0395159
-0.117805
-0.19387
-0.266248
-0.333501
-0.39423
-0.447085
-0.490758
-0.523969
-0.545406
-0.553674
-0.547289
-0.52499
-0.488259
-0.451533
-0.0346895
-0.103402
-0.17012
-0.233533
-0.292358
-0.345351
-0.391326
-0.429158
-0.457796
-0.476274
-0.483784
-0.479893
-0.464947
-0.440961
-0.410608
-0.0303308
-0.0903983
-0.148689
-0.204037
-0.255304
-0.301399
-0.341286
-0.374018
-0.398758
-0.414841
-0.421919
-0.420274
-0.411294
-0.398203
-0.38611
-0.0263891
-0.0786415
-0.129322
-0.177402
-0.221881
-0.261802
-0.296275
-0.324499
-0.345806
-0.359737
-0.366204
-0.365843
-0.360597
-0.354861
-0.356691
-0.0228164
-0.0679882
-0.111781
-0.153295
-0.191655
-0.226032
-0.255656
-0.279846
-0.298045
-0.309883
-0.315314
-0.314888
-0.310332
-0.306364
-0.318058
-0.0195678
-0.0583029
-0.0958412
-0.131401
-0.164226
-0.1936
-0.218857
-0.239408
-0.254759
-0.264542
-0.268564
-0.266876
-0.259739
-0.247077
-0.223397
-0.0166006
-0.0494584
-0.0812906
-0.111428
-0.139222
-0.164059
-0.185367
-0.20263
-0.215392
-0.223254
-0.225843
-0.222712
-0.213051
-0.195511
-0.171923
-0.0138747
-0.0413349
-0.0679312
-0.0930998
-0.116295
-0.136997
-0.154721
-0.169018
-0.179473
-0.185675
-0.187148
-0.183137
-0.17189
-0.148202
-0.0921935
-0.0113521
-0.0338187
-0.0555755
-0.0761589
-0.09512
-0.11203
-0.126486
-0.138111
-0.146544
-0.151419
-0.15231
-0.148629
-0.139416
-0.12338
-0.101644
-0.00899662
-0.0268018
-0.0440449
-0.0603586
-0.075387
-0.0887894
-0.100244
-0.10945
-0.116118
-0.119962
-0.120686
-0.117998
-0.11172
-0.102552
-0.0951588
-0.00677356
-0.0201804
-0.0331681
-0.0454624
-0.0567976
-0.0669191
-0.0755869
-0.0825767
-0.0876793
-0.0906986
-0.0914651
-0.0898883
-0.0860644
-0.0805213
-0.0736895
-0.00464933
-0.0138544
-0.0227795
-0.0312415
-0.0390625
-0.0460727
-0.0521122
-0.0570346
-0.0607079
-0.06302
-0.0638979
-0.0633626
-0.0616277
-0.0594109
-0.0590427
-0.00259123
-0.0077259
-0.0127175
-0.0174723
-0.0218991
-0.0259108
-0.0294267
-0.0323753
-0.0346976
-0.0363525
-0.0373316
-0.0376877
-0.0375448
-0.0370364
-0.0353604
-0.000567084
-0.0016989
-0.00282345
-0.00393548
-0.00502947
-0.00610017
-0.00714402
-0.00816172
-0.00916159
-0.0101645
-0.0112113
-0.0123715
-0.0137291
-0.0154862
-0.0192493
0.001455
0.00432186
0.00706013
0.00958655
0.0118213
0.0136885
0.0151161
0.0160339
0.0163708
0.0160492
0.0149807
0.0130757
0.0103568
0.00744947
0.00789479
0.00350695
0.0104317
0.0170906
0.023311
0.0289272
0.0337824
0.0377298
0.0406324
0.04236
0.0427819
0.0417523
0.0390881
0.0345723
0.0280559
0.0202187
0.00562102
0.016727
0.0274269
0.0374572
0.0465645
0.0545101
0.0610729
0.066051
0.0692608
0.0705285
0.0696638
0.0663925
0.0601822
0.0495843
0.029091
0.00783016
0.023306
0.0382313
0.0522485
0.065014
0.0762049
0.0855242
0.0927062
0.0975204
0.0997673
0.0992572
0.09575
0.0888503
0.0779949
0.0641428
0.0101683
0.0302701
0.049671
0.0679154
0.0845655
0.0992097
0.111471
0.121019
0.127578
0.130938
0.130949
0.127482
0.120284
0.108505
0.0886464
0.0126707
0.0377247
0.0619201
0.0846981
0.105521
0.123883
0.139319
0.151426
0.159878
0.164456
0.16508
0.16183
0.154925
0.144651
0.13247
0.0153744
0.0457802
0.0751612
0.10285
0.1282
0.150604
0.1695
0.184395
0.194894
0.200749
0.201931
0.19875
0.191939
0.182156
0.165479
0.0183182
0.0545529
0.0895874
0.122637
0.152943
0.179782
0.202483
0.220444
0.233168
0.240321
0.241848
0.238232
0.23106
0.224494
0.230403
0.0215431
0.0641659
0.105403
0.144346
0.180114
0.21186
0.238786
0.260163
0.275349
0.283841
0.285382
0.28023
0.269811
0.258225
0.254694
0.0250925
0.0747488
0.122824
0.168279
0.210101
0.247312
0.278978
0.30422
0.322221
0.332235
0.333616
0.32594
0.309432
0.286425
0.26554
0.029012
0.0864386
0.142078
0.194754
0.243316
0.286646
0.323668
0.353351
0.37469
0.386677
0.388199
0.377849
0.353631
0.313218
0.260974
0.0333496
0.0993793
0.163406
0.224108
0.280193
0.330396
0.3735
0.408324
0.43371
0.44845
0.451094
0.439458
0.409151
0.348301
0.212875
0.0381555
0.113722
0.187058
0.256695
0.321185
0.379117
0.429128
0.469907
0.500187
0.518691
0.523984
0.514115
0.485964
0.435251
0.366441
0.0434822
0.129624
0.2133
0.292882
0.366765
0.433382
0.49122
0.538843
0.574911
0.598184
0.607491
0.601558
0.578543
0.534865
0.459887
0.0493846
0.147249
0.242404
0.333055
0.417429
0.49379
0.560463
0.615872
0.658596
0.687463
0.701679
0.700968
0.685586
0.656334
0.618738
0.0559193
0.16677
0.274658
0.377617
0.473697
0.560976
0.637591
0.701783
0.751988
0.78701
0.806343
0.810686
0.802393
0.783745
0.73929
0.0631445
0.18836
0.310356
0.426988
0.536117
0.63562
0.723411
0.797486
0.856014
0.897556
0.921537
0.929312
0.926544
0.929247
0.984243
0.0711197
0.2122
0.349803
0.481602
0.605265
0.718453
0.818827
0.904069
0.971935
1.02041
1.04812
1.05541
1.04707
1.03863
1.06757
0.0799041
0.23847
0.393302
0.541898
0.681731
0.810242
0.924825
1.02281
1.10143
1.1578
1.18901
1.19252
1.16784
1.12228
1.08694
0.0895561
0.267345
0.441155
0.608313
0.766104
0.911761
1.04242
1.15509
1.24647
1.31279
1.3493
1.34938
1.30329
1.19904
1.0514
0.100131
0.298995
0.493651
0.681264
0.858949
1.02375
1.1726
1.30224
1.40903
1.48863
1.53503
1.53849
1.47934
1.30615
0.833611
0.111683
0.333579
0.551059
0.761139
0.960783
1.14688
1.31619
1.46534
1.5906
1.68765
1.75075
1.77125
1.7348
1.62135
1.44563
0.124258
0.371242
0.613624
0.84829
1.07207
1.28171
1.47387
1.64512
1.79189
1.91037
1.99623
2.04376
2.04398
1.98005
1.80664
0.137898
0.412111
0.681563
0.943026
1.19321
1.42872
1.64614
1.842
2.01294
2.15591
2.2685
2.34933
2.39795
2.41507
2.41972
0.152639
0.456294
0.755062
1.04562
1.32455
1.58836
1.83345
2.05627
2.25352
2.42266
2.56302
2.67749
2.77409
2.8591
2.86928
0.168508
0.503875
0.83427
1.15629
1.46643
1.76102
2.03628
2.28839
2.51371
2.70955
2.8757
3.0183
3.15856
3.35546
3.78358
0.185523
0.55491
0.919294
1.27523
1.61911
1.94714
2.25525
2.53916
2.79448
3.01717
3.20491
3.36097
3.50399
3.69166
4.06435
0.203687
0.609417
1.01018
1.40253
1.78281
2.14709
2.49105
2.80985
3.09799
3.34915
3.55627
3.71289
3.81872
3.89977
4.06306
0.222988
0.667365
1.10689
1.53819
1.9576
2.36115
2.74432
3.10186
3.42724
3.71179
3.94285
4.10026
4.1509
4.0511
3.8557
0.243396
0.728664
1.20931
1.68206
2.14339
2.58934
3.0154
3.41619
3.78485
4.11163
4.38066
4.56192
4.58778
4.2691
2.90509
0.264853
0.793152
1.31717
1.83383
2.3398
2.83128
3.30398
3.75282
4.17154
4.55156
4.87949
5.13158
5.26407
5.21324
5.04229
0.287279
0.860587
1.43008
1.99298
2.54619
3.0862
3.60905
4.1103
4.58503
5.02762
5.431
5.78433
6.06777
6.24097
6.18674
0.31056
0.930637
1.54751
2.15877
2.76165
3.35293
3.92901
4.48609
5.02073
5.53082
6.0172
6.48558
6.94807
7.42674
8.00902
0.334548
1.00287
1.66876
2.33028
2.98503
3.63009
4.26202
4.87731
5.4733
6.05033
6.61578
7.19082
7.81708
8.54061
9.22372
0.359058
1.07673
1.79296
2.50636
3.215
3.91618
4.60641
5.28174
5.93883
6.57763
7.20749
7.86028
8.61839
9.68247
11.5878
0.383855
1.15154
1.919
2.68561
3.44998
4.20966
4.9609
5.69858
6.41676
7.11082
7.78299
8.45629
9.20696
10.2399
12.0543
0.408645
1.22643
2.04553
2.86625
3.688
4.50877
5.32453
6.12862
6.9111
7.6588
8.35731
8.99816
9.59911
10.2542
11.2076
0.433065
1.30032
2.17078
3.04599
3.92647
4.81105
5.69594
6.5733
7.42914
8.24046
8.97117
9.56716
9.95314
10.0608
10.1491
0.456673
1.3719
2.2926
3.22187
4.16182
5.1128
6.0722
7.03245
7.97758
8.8775
9.67793
10.2813
10.4997
9.88014
6.80801
0.478943
1.43957
2.4083
3.39011
4.38922
5.40832
6.44743
7.50156
8.5568
9.58292
10.5208
11.262
11.6274
11.4018
10.7884
0.499277
1.50151
2.51473
3.5461
4.60241
5.68957
6.81172
7.96933
9.15552
10.3488
11.4992
12.5026
13.1645
13.1915
12.423
0.517019
1.5557
2.60837
3.68451
4.79382
5.94608
7.15085
8.41658
9.7485
11.1436
12.5787
13.9792
15.1412
15.5323
13.8739
0.531495
1.60006
2.6855
3.79962
4.95505
6.16567
7.44706
8.81713
10.2967
11.9097
13.6809
15.62
17.6518
19.2948
18.2224
0.542059
1.63257
2.74252
3.88575
5.07759
6.33565
7.68111
9.14082
10.7511
12.5649
14.6653
17.1953
20.4301
24.9413
31.9153
30.8651
23.8954
19.6003
16.5805
14.2179
12.2391
10.5121
8.96409
7.54988
6.23838
5.00631
3.83498
2.70856
1.61307
0.535697
16.4221
17.9622
16.749
15.0201
13.2772
11.6321
10.1015
8.6775
7.34607
6.09236
4.90221
3.76247
2.66089
1.58602
0.526929
11.2498
13.9393
14.254
13.468
12.2675
10.9445
9.61592
8.32585
7.08764
5.90167
4.7627
3.66315
2.59448
1.54788
0.514491
7.36692
11.5641
12.5216
12.2024
11.3416
10.2597
9.10278
7.93743
6.79231
5.67784
4.59544
3.54209
2.51254
1.50044
0.498959
10.8002
11.4373
11.6747
11.3119
10.5683
9.62599
8.5947
7.53428
6.47514
5.43128
4.40766
3.40425
2.41828
1.44551
0.480918
11.8904
11.5868
11.2435
10.6847
9.9321
9.05327
8.10614
7.1296
6.14682
5.17025
4.20552
3.25404
2.31468
1.38481
0.460924
12.8048
11.7628
10.961
10.1912
9.38275
8.52725
7.63735
6.72869
5.81372
4.90062
3.99387
3.09518
2.20433
1.31986
0.439481
13.1672
11.7713
10.6555
9.72371
8.86538
8.02448
7.18102
6.33166
5.47891
4.62625
3.77636
2.93066
2.08941
1.25196
0.417028
13.727
11.5844
10.2215
9.2046
8.33531
7.52294
6.72831
5.93658
5.14367
4.34964
3.55568
2.76286
1.97172
1.18224
0.393937
13.0597
10.8556
9.54673
8.58247
7.76525
7.00863
6.27317
5.54196
4.80891
4.07273
3.334
2.59372
1.85275
1.11162
0.370525
10.2813
9.50489
8.63223
7.85784
7.15275
6.47928
5.81475
5.14833
4.47605
3.79737
3.11321
2.42491
1.73379
1.0409
0.347064
8.87786
8.22079
7.64926
7.08483
6.51802
5.94342
5.35738
4.75855
4.14744
3.52563
2.89512
2.25794
1.61596
0.97078
0.323789
6.81726
6.87726
6.66126
6.3133
5.88852
5.41532
4.90869
4.37711
3.8261
3.25978
2.68153
2.0942
1.50027
0.901873
0.300904
5.53972
5.72548
5.76487
5.59505
5.29256
4.91031
4.47718
4.00904
3.51527
3.00211
2.47413
1.93496
1.38761
0.834713
0.27859
3.18359
4.67549
5.01383
4.96892
4.75197