/*--------------------------------*- C++ -*----------------------------------*\
| =========                 |                                                 |
| \\      /  F ield         | OpenFOAM: The Open Source CFD Toolbox           |
|  \\    /   O peration     | Version:  5.x                                   |
|   \\  /    A nd           | Web:      www.OpenFOAM.org                      |
|    \\/     M anipulation  |                                                 |
\*---------------------------------------------------------------------------*/
FoamFile
{
    version     2.0;
    format      ascii;
    class       volScalarField;
    location    "0.3";
    object      T;
}
// * * * * * * * * * * * * * * * * * * * * * * * * * * * * * * * * * * * * * //

dimensions      [0 0 0 1 0 0 0];

internalField   nonuniform List<scalar> 
6300
(
322.646
321.939
321.233
320.53
319.832
319.138
318.451
317.772
317.101
316.441
315.792
315.156
314.533
313.926
313.334
322.645
321.937
321.23
320.526
319.826
319.132
318.444
317.763
317.091
316.43
315.78
315.142
314.519
313.91
313.317
322.644
321.934
321.225
320.518
319.816
319.119
318.429
317.746
317.072
316.408
315.755
315.116
314.49
313.879
313.284
322.643
321.929
321.216
320.507
319.801
319.101
318.406
317.72
317.042
316.375
315.719
315.075
314.446
313.832
313.235
322.641
321.922
321.205
320.491
319.781
319.076
318.377
317.685
317.003
316.33
315.669
315.021
314.387
313.769
313.168
322.638
321.914
321.192
320.472
319.756
319.045
318.34
317.642
316.953
316.275
315.607
314.953
314.314
313.69
313.084
322.635
321.904
321.175
320.449
319.726
319.008
318.296
317.591
316.894
316.208
315.533
314.871
314.224
313.594
312.982
322.631
321.893
321.157
320.423
319.692
318.966
318.245
317.531
316.826
316.13
315.445
314.774
314.118
313.48
312.861
322.627
321.881
321.136
320.393
319.654
318.918
318.188
317.464
316.748
316.041
315.345
314.663
313.996
313.347
312.719
322.622
321.867
321.113
320.361
319.611
318.866
318.124
317.389
316.661
315.941
315.232
314.536
313.856
313.195
312.556
322.617
321.852
321.088
320.326
319.566
318.809
318.055
317.307
316.565
315.831
315.106
314.394
313.697
313.02
312.368
322.612
321.837
321.062
320.289
319.517
318.748
317.982
317.22
316.462
315.711
314.969
314.237
313.519
312.822
312.152
322.607
321.82
321.035
320.25
319.466
318.684
317.904
317.127
316.354
315.584
314.821
314.065
313.321
312.596
311.902
322.601
321.804
321.006
320.21
319.414
318.619
317.825
317.032
316.241
315.452
314.665
313.882
313.106
312.341
311.606
322.596
321.787
320.978
320.169
319.361
318.552
317.744
316.936
316.127
315.318
314.507
313.694
312.878
312.058
311.246
312.807
312.34
311.886
311.444
311.016
310.602
310.202
309.815
309.443
309.084
308.74
308.41
308.094
307.792
307.503
307.228
306.966
306.716
306.479
306.254
306.04
305.837
305.645
305.462
305.289
305.125
304.969
304.822
304.681
304.548
304.421
304.3
304.184
304.074
303.968
303.866
303.768
303.673
303.581
303.491
303.404
303.318
303.234
303.15
303.068
302.985
302.903
302.82
302.736
302.651
302.565
302.476
302.386
302.292
302.195
302.095
301.991
301.883
301.769
301.651
301.526
301.395
301.258
301.113
300.961
300.8
300.631
300.452
300.264
300.065
299.856
299.635
299.402
299.157
298.9
298.629
298.345
298.047
297.735
297.408
297.067
296.711
296.34
295.955
295.554
295.139
294.71
294.266
293.809
293.338
312.79
312.322
311.867
311.426
310.997
310.583
310.182
309.795
309.423
309.065
308.72
308.391
308.075
307.773
307.485
307.21
306.948
306.699
306.462
306.238
306.025
305.822
305.631
305.449
305.276
305.113
304.958
304.811
304.672
304.539
304.413
304.292
304.177
304.067
303.962
303.861
303.763
303.669
303.577
303.488
303.401
303.316
303.232
303.15
303.067
302.985
302.903
302.821
302.738
302.653
302.567
302.48
302.389
302.296
302.2
302.101
301.997
301.889
301.777
301.659
301.535
301.405
301.268
301.124
300.973
300.813
300.644
300.466
300.278
300.08
299.872
299.651
299.419
299.175
298.918
298.648
298.364
298.067
297.755
297.428
297.088
296.732
296.361
295.975
295.575
295.16
294.73
294.286
293.828
293.356
312.755
312.286
311.831
311.388
310.959
310.544
310.143
309.756
309.383
309.025
308.681
308.351
308.036
307.734
307.447
307.173
306.912
306.664
306.429
306.206
305.994
305.793
305.602
305.422
305.251
305.089
304.936
304.79
304.652
304.521
304.396
304.277
304.163
304.055
303.95
303.85
303.754
303.661
303.57
303.482
303.396
303.312
303.23
303.148
303.067
302.986
302.905
302.823
302.741
302.658
302.573
302.486
302.397
302.305
302.21
302.112
302.01
301.903
301.792
301.675
301.552
301.424
301.288
301.146
300.996
300.837
300.67
300.494
300.307
300.111
299.903
299.685
299.454
299.211
298.955
298.686
298.403
298.107
297.795
297.47
297.129
296.774
296.403
296.017
295.616
295.201
294.77
294.325
293.866
293.392
312.703
312.233
311.775
311.331
310.901
310.485
310.083
309.696
309.323
308.965
308.621
308.292
307.977
307.677
307.39
307.118
306.858
306.612
306.379
306.157
305.947
305.749
305.56
305.382
305.214
305.054
304.903
304.759
304.623
304.494
304.371
304.254
304.142
304.035
303.933
303.835
303.74
303.649
303.56
303.474
303.389
303.307
303.225
303.145
303.065
302.986
302.907
302.827
302.746
302.664
302.581
302.496
302.408
302.318
302.225
302.129
302.028
301.923
301.814
301.699
301.579
301.452
301.319
301.179
301.03
300.874
300.709
300.535
300.351
300.157
299.951
299.735
299.506
299.265
299.011
298.743
298.462
298.167
297.857
297.532
297.192
296.837
296.466
296.08
295.679
295.262
294.831
294.384
293.923
293.448
312.634
312.161
311.701
311.255
310.824
310.407
310.004
309.616
309.243
308.884
308.541
308.212
307.898
307.599
307.314
307.043
306.786
306.542
306.311
306.092
305.885
305.689
305.504
305.329
305.163
305.007
304.858
304.718
304.585
304.458
304.338
304.224
304.115
304.01
303.91
303.814
303.722
303.633
303.546
303.462
303.38
303.299
303.22
303.142
303.064
302.987
302.909
302.831
302.753
302.673
302.592
302.509
302.423
302.336
302.245
302.151
302.053
301.95
301.843
301.731
301.614
301.49
301.359
301.222
301.077
300.923
300.761
300.59
300.409
300.218
300.015
299.801
299.575
299.337
299.085
298.82
298.541
298.247
297.939
297.615
297.276
296.921
296.551
296.165
295.763
295.345
294.912
294.464
294
293.522
312.546
312.07
311.608
311.16
310.726
310.308
309.904
309.515
309.141
308.783
308.439
308.111
307.799
307.501
307.218
306.95
306.696
306.455
306.227
306.011
305.808
305.615
305.434
305.262
305.1
304.948
304.803
304.666
304.537
304.414
304.297
304.186
304.08
303.979
303.882
303.789
303.699
303.613
303.529
303.447
303.368
303.29
303.213
303.137
303.062
302.987
302.912
302.837
302.761
302.684
302.605
302.525
302.442
302.357
302.269
302.178
302.083
301.984
301.88
301.771
301.657
301.537
301.41
301.276
301.134
300.985
300.827
300.659
300.482
300.294
300.095
299.885
299.662
299.427
299.179
298.917
298.64
298.349
298.042
297.72
297.382
297.028
296.658
296.272
295.869
295.45
295.015
294.564
294.098
293.616
312.439
311.959
311.494
311.044
310.608
310.188
309.783
309.393
309.018
308.66
308.317
307.989
307.678
307.383
307.102
306.837
306.586
306.349
306.125
305.913
305.714
305.526
305.349
305.182
305.025
304.877
304.737
304.604
304.479
304.36
304.248
304.141
304.039
303.941
303.848
303.759
303.672
303.589
303.509
303.43
303.354
303.279
303.205
303.132
303.06
302.988
302.916
302.843
302.77
302.696
302.621
302.544
302.464
302.383
302.298
302.211
302.119
302.024
301.924
301.819
301.709
301.593
301.47
301.34
301.203
301.058
300.905
300.742
300.569
300.386
300.192
299.986
299.768
299.536
299.292
299.033
298.76
298.472
298.168
297.847
297.511
297.158
296.788
296.401
295.998
295.578
295.141
294.687
294.217
293.73
312.312
311.828
311.36
310.907
310.469
310.047
309.64
309.249
308.874
308.514
308.171
307.845
307.536
307.242
306.965
306.704
306.457
306.224
306.005
305.798
305.604
305.422
305.25
305.089
304.937
304.794
304.66
304.532
304.412
304.299
304.191
304.089
303.991
303.898
303.809
303.724
303.641
303.562
303.485
303.41
303.337
303.266
303.196
303.126
303.057
302.989
302.92
302.851
302.781
302.711
302.639
302.565
302.49
302.412
302.332
302.248
302.161
302.07
301.975
301.875
301.769
301.658
301.54
301.416
301.284
301.144
300.996
300.838
300.671
300.493
300.304
300.104
299.891
299.665
299.425
299.171
298.902
298.617
298.315
297.998
297.663
297.311
296.942
296.555
296.151
295.729
295.29
294.833
294.358
293.866
312.164
311.675
311.203
310.748
310.308
309.885
309.476
309.083
308.706
308.346
308.003
307.678
307.37
307.08
306.806
306.549
306.308
306.08
305.867
305.666
305.478
305.302
305.137
304.982
304.837
304.7
304.572
304.451
304.337
304.229
304.127
304.03
303.937
303.849
303.765
303.684
303.606
303.531
303.459
303.388
303.319
303.252
303.185
303.12
303.054
302.989
302.924
302.859
302.793
302.727
302.659
302.59
302.519
302.446
302.37
302.291
302.209
302.123
302.033
301.938
301.838
301.732
301.62
301.501
301.375
301.242
301.1
300.949
300.788
300.616
300.434
300.239
300.032
299.812
299.578
299.329
299.065
298.785
298.487
298.172
297.839
297.488
297.12
296.733
296.329
295.906
295.464
295.003
294.523
294.025
311.993
311.5
311.024
310.567
310.126
309.7
309.29
308.895
308.516
308.154
307.81
307.485
307.179
306.893
306.625
306.374
306.138
305.917
305.71
305.517
305.336
305.167
305.009
304.862
304.724
304.595
304.474
304.36
304.252
304.151
304.055
303.964
303.878
303.795
303.716
303.641
303.568
303.497
303.429
303.363
303.299
303.236
303.174
303.112
303.051
302.99
302.929
302.868
302.807
302.745
302.682
302.617
302.551
302.483
302.412
302.339
302.262
302.182
302.097
302.008
301.914
301.814
301.709
301.596
301.477
301.351
301.216
301.073
300.919
300.755
300.58
300.392
300.192
299.979
299.752
299.51
299.252
298.977
298.683
298.371
298.04
297.69
297.323
296.937
296.533
296.109
295.665
295.2
294.714
294.208
311.796
311.298
310.82
310.362
309.921
309.495
309.083
308.684
308.301
307.935
307.589
307.265
306.962
306.681
306.419
306.176
305.948
305.735
305.535
305.349
305.176
305.015
304.867
304.728
304.599
304.479
304.366
304.259
304.159
304.065
303.976
303.893
303.813
303.736
303.663
303.593
303.525
303.46
303.397
303.336
303.277
303.219
303.161
303.104
303.047
302.991
302.934
302.878
302.821
302.764
302.706
302.647
302.586
302.523
302.458
302.39
302.32
302.246
302.168
302.086
301.998
301.905
301.807
301.702
301.59
301.472
301.346
301.211
301.066
300.91
300.743
300.563
300.37
300.165
299.946
299.713
299.463
299.194
298.906
298.597
298.267
297.918
297.551
297.167
296.764
296.341
295.895
295.426
294.933
294.418
311.57
311.067
310.589
310.134
309.696
309.271
308.856
308.452
308.062
307.689
307.339
307.014
306.714
306.44
306.189
305.956
305.738
305.533
305.342
305.163
304.999
304.848
304.709
304.582
304.463
304.352
304.248
304.15
304.058
303.972
303.891
303.815
303.743
303.673
303.606
303.541
303.479
303.419
303.362
303.307
303.254
303.201
303.148
303.096
303.044
302.991
302.939
302.887
302.836
302.784
302.732
302.679
302.624
302.567
302.508
302.446
302.382
302.316
302.245
302.171
302.091
302.005
301.913
301.816
301.712
301.603
301.488
301.363
301.228
301.082
300.923
300.751
300.567
300.37
300.162
299.94
299.701
299.44
299.158
298.851
298.522
298.171
297.805
297.422
297.024
296.605
296.159
295.686
295.185
294.659
311.307
310.802
310.324
309.881
309.455
309.031
308.615
308.2
307.799
307.411
307.054
306.725
306.432
306.167
305.932
305.715
305.509
305.314
305.128
304.958
304.802
304.662
304.536
304.422
304.317
304.217
304.122
304.031
303.948
303.87
303.799
303.733
303.669
303.607
303.546
303.487
303.429
303.375
303.324
303.276
303.229
303.182
303.136
303.088
303.04
302.991
302.944
302.897
302.851
302.805
302.76
302.714
302.665
302.614
302.56
302.505
302.448
302.39
302.329
302.263
302.191
302.112
302.028
301.937
301.843
301.744
301.641
301.53
301.407
301.271
301.121
300.957
300.779
300.593
300.396
300.19
299.968
299.719
299.443
299.137
298.806
298.448
298.08
297.7
297.314
296.906
296.461
295.985
295.471
294.935
310.992
310.5
310.01
309.602
309.213
308.782
308.371
307.929
307.519
307.09
306.728
306.387
306.107
305.853
305.647
305.46
305.264
305.081
304.894
304.733
304.583
304.458
304.344
304.25
304.164
304.074
303.989
303.903
303.829
303.76
303.702
303.648
303.592
303.539
303.483
303.43
303.375
303.327
303.282
303.242
303.205
303.164
303.124
303.08
303.037
302.99
302.948
302.904
302.865
302.826
302.789
302.752
302.709
302.664
302.614
302.566
302.516
302.47
302.42
302.362
302.3
302.228
302.152
302.064
301.98
301.891
301.806
301.714
301.603
301.482
301.338
301.184
301.004
300.829
300.643
300.465
300.272
300.034
299.773
299.459
299.127
298.739
298.372
297.985
297.633
297.26
296.809
296.337
295.789
295.257
310.58
310.197
309.581
309.295
309.031
308.506
308.171
307.615
307.265
306.676
306.37
305.962
305.747
305.469
305.337
305.22
305
304.857
304.62
304.494
304.328
304.239
304.124
304.067
304.016
303.923
303.86
303.758
303.703
303.633
303.598
303.567
303.511
303.474
303.415
303.376
303.311
303.276
303.23
303.207
303.185
303.145
303.117
303.071
303.039
302.984
302.952
302.907
302.88
302.841
302.82
302.798
302.755
302.723
302.665
302.63
302.58
302.553
302.524
302.468
302.425
302.349
302.291
302.187
302.124
302.031
301.981
301.925
301.814
301.727
301.567
301.447
301.22
301.083
300.875
300.763
300.64
300.38
300.18
299.805
299.527
298.998
298.691
298.22
297.982
297.728
297.184
296.796
296.083
295.663
292.805
292.207
291.591
290.961
290.315
289.657
288.987
288.307
287.617
286.92
286.216
285.507
284.793
284.077
283.359
292.823
292.223
291.607
290.974
290.328
289.668
288.997
288.316
287.625
286.926
286.221
285.511
284.796
284.079
283.36
292.858
292.256
291.637
291.002
290.353
289.691
289.017
288.333
287.64
286.939
286.231
285.519
284.802
284.082
283.361
292.91
292.305
291.683
291.045
290.392
289.726
289.048
288.36
287.663
286.958
286.247
285.53
284.81
284.087
283.363
292.981
292.371
291.744
291.101
290.443
289.771
289.088
288.395
287.693
286.983
286.267
285.546
284.821
284.094
283.365
293.07
292.455
291.822
291.172
290.507
289.828
289.139
288.439
287.73
287.014
286.292
285.565
284.835
284.102
283.368
293.179
292.556
291.915
291.257
290.584
289.897
289.199
288.491
287.774
287.051
286.322
285.588
284.851
284.112
283.371
293.307
292.676
292.025
291.357
290.673
289.976
289.268
288.551
287.826
287.094
286.356
285.615
284.87
284.123
283.374
293.457
292.815
292.153
291.472
290.776
290.067
289.347
288.619
287.883
287.141
286.394
285.644
284.891
284.135
283.379
293.63
292.975
292.297
291.601
290.891
290.168
289.435
288.694
287.946
287.193
286.436
285.676
284.913
284.149
283.383
293.828
293.156
292.46
291.746
291.017
290.278
289.53
288.775
288.014
287.25
286.481
285.711
284.938
284.163
283.388
294.053
293.359
292.64
291.904
291.155
290.396
289.631
288.861
288.087
287.309
286.529
285.747
284.963
284.178
283.393
294.31
293.587
292.838
292.074
291.3
290.521
289.738
288.951
288.162
287.371
286.579
285.785
284.99
284.194
283.398
294.608
293.841
293.051
292.253
291.452
290.65
289.847
289.043
288.239
287.434
286.629
285.823
285.017
284.21
283.403
294.964
294.118
293.271
292.434
291.604
290.778
289.956
289.136
288.317
287.498
286.68
285.862
285.044
284.227
283.409
322.59
321.771
320.952
320.132
319.312
318.492
317.67
316.848
316.024
315.196
314.364
313.525
312.673
311.793
310.838
322.586
321.757
320.928
320.099
319.269
318.437
317.605
316.77
315.932
315.089
314.24
313.381
312.506
311.605
310.669
322.581
321.743
320.905
320.066
319.226
318.384
317.54
316.694
315.843
314.987
314.124
313.249
312.357
311.441
310.481
322.577
321.73
320.882
320.034
319.184
318.333
317.479
316.621
315.759
314.891
314.015
313.128
312.227
311.307
310.375
322.572
321.717
320.861
320.003
319.144
318.283
317.419
316.552
315.679
314.801
313.914
313.018
312.109
311.182
310.222
322.568
321.704
320.84
319.974
319.106
318.236
317.363
316.486
315.604
314.716
313.821
312.917
312.004
311.082
310.151
322.564
321.692
320.819
319.945
319.07
318.191
317.309
316.424
315.533
314.637
313.734
312.824
311.907
310.988
310.084
322.56
321.681
320.8
319.919
319.035
318.149
317.259
316.365
315.467
314.563
313.652
312.735
311.812
310.883
309.946
322.557
321.67
320.782
319.893
319.002
318.109
317.212
316.311
315.405
314.494
313.576
312.652
311.721
310.785
309.859
322.553
321.66
320.765
319.87
318.972
318.071
317.168
316.26
315.347
314.429
313.505
312.573
311.633
310.682
309.707
322.55
321.65
320.749
319.847
318.943
318.036
317.126
316.212
315.294
314.369
313.439
312.501
311.553
310.596
309.63
322.547
321.641
320.735
319.827
318.917
318.004
317.088
316.169
315.244
314.315
313.379
312.435
311.482
310.516
309.527
322.544
321.633
320.721
319.807
318.892
317.974
317.053
316.128
315.199
314.265
313.324
312.376
311.419
310.452
309.474
322.542
321.625
320.708
319.79
318.869
317.946
317.021
316.091
315.158
314.219
313.275
312.324
311.365
310.395
309.408
322.54
321.618
320.696
319.773
318.848
317.921
316.991
316.058
315.12
314.179
313.231
312.278
311.319
310.352
309.378
322.537
321.612
320.686
319.758
318.829
317.898
316.964
316.027
315.086
314.142
313.192
312.238
311.278
310.314
309.352
322.535
321.606
320.676
319.744
318.812
317.877
316.94
315.999
315.056
314.109
313.157
312.201
311.24
310.275
309.305
322.534
321.6
320.667
319.732
318.796
317.858
316.917
315.974
315.028
314.079
313.125
312.168
311.206
310.241
309.276
322.532
321.595
320.658
319.721
318.781
317.84
316.897
315.952
315.003
314.052
313.097
312.138
311.175
310.207
309.231
322.53
321.591
320.651
319.71
318.768
317.825
316.879
315.931
314.981
314.028
313.072
312.112
311.148
310.18
309.208
322.529
321.587
320.644
319.701
318.756
317.81
316.863
315.913
314.961
314.007
313.049
312.089
311.125
310.156
309.18
322.528
321.583
320.638
319.692
318.746
317.798
316.848
315.897
314.943
313.988
313.029
312.069
311.105
310.138
309.168
322.527
321.58
320.633
319.685
318.736
317.786
316.835
315.882
314.927
313.971
313.012
312.051
311.088
310.123
309.158
322.526
321.577
320.628
319.678
318.728
317.776
316.823
315.869
314.913
313.956
312.996
312.035
311.072
310.108
309.141
322.525
321.574
320.623
319.672
318.72
317.767
316.813
315.857
314.901
313.942
312.983
312.021
311.058
310.095
309.131
322.524
321.572
320.619
319.667
318.713
317.759
316.803
315.847
314.89
313.931
312.97
312.009
311.046
310.082
309.116
322.523
321.57
320.616
319.662
318.707
317.751
316.795
315.838
314.88
313.92
312.959
311.998
311.035
310.071
309.107
322.523
321.568
320.613
319.657
318.701
317.745
316.788
315.83
314.871
313.911
312.95
311.988
311.025
310.06
309.093
322.522
321.566
320.61
319.654
318.697
317.739
316.781
315.822
314.863
313.903
312.941
311.979
311.016
310.052
309.087
322.522
321.565
320.607
319.65
318.692
317.734
316.775
315.816
314.856
313.895
312.934
311.972
311.009
310.045
309.079
322.521
321.563
320.605
319.647
318.689
317.73
316.77
315.81
314.85
313.889
312.927
311.965
311.003
310.039
309.075
322.521
321.562
320.603
319.644
318.685
317.726
316.766
315.805
314.845
313.883
312.922
311.96
310.997
310.035
309.073
322.52
321.561
320.602
319.642
318.682
317.722
316.762
315.801
314.84
313.879
312.917
311.955
310.993
310.03
309.068
322.52
321.56
320.6
319.64
318.68
317.719
316.758
315.797
314.836
313.874
312.913
311.951
310.989
310.027
309.065
322.52
321.559
320.599
319.638
318.677
317.716
316.755
315.794
314.832
313.871
312.909
311.947
310.985
310.023
309.061
322.52
321.559
320.598
319.637
318.675
317.714
316.753
315.791
314.829
313.867
312.906
311.944
310.982
310.02
309.059
322.519
321.558
320.597
319.635
318.674
317.712
316.75
315.788
314.827
313.865
312.903
311.941
310.979
310.017
309.055
322.519
321.557
320.596
319.634
318.672
317.71
316.748
315.786
314.824
313.862
312.9
311.938
310.977
310.015
309.053
322.519
321.557
320.595
319.633
318.671
317.709
316.747
315.784
314.822
313.86
312.898
311.936
310.975
310.013
309.051
322.519
321.557
320.594
319.632
318.67
317.708
316.745
315.783
314.821
313.859
312.897
311.935
310.973
310.012
309.051
322.519
321.556
320.594
319.631
318.669
317.707
316.744
315.782
314.819
313.857
312.895
311.933
310.972
310.01
309.05
322.519
321.556
320.593
319.631
318.668
317.706
316.743
315.781
314.818
313.856
312.894
311.932
310.971
310.01
309.049
322.519
321.556
320.593
319.63
318.668
317.705
316.742
315.78
314.817
313.855
312.893
311.931
310.97
310.009
309.048
322.519
321.556
320.593
319.63
318.667
317.705
316.742
315.779
314.817
313.855
312.892
311.931
310.969
310.008
309.048
322.519
321.556
320.593
319.63
318.667
317.704
316.742
315.779
314.816
313.854
312.892
311.93
310.969
310.008
309.047
322.519
321.556
320.593
319.63
318.667
317.704
316.741
315.779
314.816
313.854
312.892
311.93
310.969
310.008
309.047
322.519
321.556
320.593
319.63
318.667
317.704
316.741
315.779
314.816
313.854
312.892
311.93
310.969
310.008
309.047
322.519
321.556
320.593
319.63
318.667
317.704
316.742
315.779
314.817
313.854
312.892
311.93
310.969
310.008
309.047
322.519
321.556
320.593
319.63
318.667
317.705
316.742
315.779
314.817
313.855
312.893
311.931
310.969
310.008
309.047
322.519
321.556
320.593
319.631
318.668
317.705
316.743
315.78
314.818
313.855
312.893
311.931
310.97
310.008
309.048
322.519
321.556
320.594
319.631
318.669
317.706
316.743
315.781
314.819
313.856
312.894
311.932
310.971
310.009
309.048
322.519
321.556
320.594
319.632
318.669
317.707
316.745
315.782
314.82
313.858
312.895
311.933
310.972
310.01
309.049
322.519
321.557
320.595
319.633
318.67
317.708
316.746
315.784
314.821
313.859
312.897
311.935
310.973
310.012
309.051
322.519
321.557
320.595
319.633
318.671
317.709
316.747
315.785
314.823
313.861
312.899
311.937
310.975
310.013
309.052
322.519
321.558
320.596
319.635
318.673
317.711
316.749
315.787
314.825
313.863
312.901
311.939
310.977
310.015
309.054
322.519
321.558
320.597
319.636
318.674
317.713
316.751
315.79
314.828
313.866
312.904
311.941
310.979
310.018
309.056
322.52
321.559
320.598
319.637
318.676
317.715
316.754
315.792
314.831
313.869
312.907
311.944
310.982
310.02
309.059
322.52
321.56
320.599
319.639
318.679
317.718
316.757
315.795
314.834
313.872
312.91
311.948
310.985
310.023
309.06
322.52
321.561
320.601
319.641
318.681
317.721
316.76
315.799
314.838
313.876
312.914
311.952
310.989
310.026
309.062
322.521
321.562
320.603
319.643
318.684
317.724
316.764
315.803
314.842
313.881
312.919
311.956
310.993
310.03
309.067
322.521
321.563
320.604
319.646
318.687
317.728
316.768
315.808
314.847
313.886
312.924
311.962
310.999
310.035
309.07
322.521
321.564
320.607
319.649
318.691
317.732
316.773
315.814
314.853
313.892
312.93
311.968
311.005
310.041
309.077
322.522
321.566
320.609
319.652
318.695
317.737
316.779
315.82
314.86
313.899
312.938
311.975
311.012
310.048
309.082
322.522
321.567
320.612
319.656
318.7
317.743
316.785
315.827
314.867
313.907
312.946
311.984
311.02
310.057
309.093
322.523
321.569
320.615
319.66
318.705
317.749
316.792
315.835
314.876
313.916
312.955
311.993
311.029
310.065
309.1
322.524
321.571
320.618
319.665
318.711
317.756
316.801
315.844
314.886
313.926
312.966
312.003
311.04
310.075
309.111
322.525
321.574
320.622
319.67
318.718
317.764
316.81
315.854
314.897
313.938
312.978
312.015
311.051
310.085
309.118
322.525
321.576
320.627
319.676
318.725
317.773
316.82
315.866
314.909
313.951
312.991
312.029
311.064
310.097
309.125
322.526
321.579
320.631
319.683
318.734
317.784
316.832
315.878
314.923
313.966
313.007
312.045
311.08
310.112
309.142
322.528
321.582
320.637
319.691
318.743
317.795
316.845
315.893
314.939
313.983
313.024
312.063
311.098
310.13
309.155
322.529
321.586
320.643
319.699
318.754
317.807
316.859
315.909
314.957
314.002
313.045
312.084
311.12
310.153
309.182
322.53
321.59
320.649
319.708
318.765
317.821
316.875
315.927
314.977
314.023
313.067
312.108
311.145
310.178
309.203
322.532
321.594
320.657
319.718
318.778
317.837
316.893
315.947
314.999
314.047
313.092
312.134
311.173
310.208
309.245
322.533
321.599
320.665
319.729
318.792
317.854
316.913
315.97
315.023
314.074
313.121
312.164
311.203
310.239
309.271
322.535
321.605
320.674
319.741
318.808
317.872
316.935
315.994
315.05
314.103
313.152
312.196
311.236
310.273
309.313
322.537
321.61
320.683
319.755
318.825
317.893
316.959
316.021
315.08
314.136
313.186
312.232
311.272
310.307
309.335
322.539
321.617
320.694
319.77
318.844
317.916
316.985
316.051
315.114
314.172
313.225
312.272
311.313
310.345
309.361
322.541
321.624
320.705
319.785
318.864
317.94
317.014
316.084
315.15
314.211
313.268
312.318
311.36
310.394
309.419
322.544
321.631
320.718
319.803
318.886
317.967
317.045
316.12
315.19
314.255
313.315
312.369
311.414
310.449
309.464
322.546
321.639
320.731
319.821
318.91
317.996
317.079
316.159
315.234
314.304
313.368
312.426
311.476
310.517
309.553
322.549
321.648
320.745
319.842
318.936
318.028
317.116
316.201
315.281
314.356
313.426
312.488
311.544
310.591
309.618
322.552
321.657
320.761
319.863
318.964
318.061
317.156
316.247
315.333
314.413
313.488
312.557
311.619
310.679
309.746
322.556
321.667
320.777
319.886
318.993
318.098
317.199
316.296
315.388
314.475
313.555
312.629
311.698
310.762
309.819
322.559
321.677
320.795
319.911
319.025
318.137
317.245
316.349
315.448
314.541
313.627
312.707
311.779
310.85
309.933
322.563
321.689
320.814
319.937
319.059
318.178
317.294
316.405
315.512
314.612
313.705
312.789
311.864
310.929
309.988
322.567
321.7
320.833
319.965
319.094
318.222
317.346
316.466
315.581
314.689
313.789
312.878
311.954
311.014
310.046
322.571
321.713
320.854
319.994
319.132
318.268
317.401
316.53
315.655
314.772
313.88
312.977
312.057
311.119
310.168
322.575
321.725
320.875
320.024
319.171
318.317
317.459
316.599
315.733
314.861
313.98
313.086
312.174
311.234
310.253
322.58
321.739
320.897
320.055
319.212
318.367
317.52
316.671
315.817
314.958
314.09
313.21
312.31
311.378
310.399
322.584
321.752
320.92
320.087
319.254
318.419
317.584
316.746
315.905
315.06
314.208
313.347
312.468
311.556
310.557
295.366
294.371
293.464
292.593
291.738
290.893
290.054
289.219
288.387
287.556
286.726
285.898
285.069
284.241
283.414
295.515
294.539
293.616
292.725
291.853
290.993
290.14
289.293
288.449
287.607
286.768
285.929
285.092
284.255
283.418
295.64
294.67
293.744
292.843
291.959
291.087
290.222
289.364
288.509
287.657
286.808
285.96
285.114
284.268
283.423
295.702
294.771
293.853
292.949
292.057
291.175
290.3
289.431
288.567
287.706
286.847
285.99
285.135
284.281
283.427
295.763
294.863
293.952
293.046
292.148
291.258
290.374
289.496
288.622
287.752
286.885
286.019
285.156
284.293
283.431
295.882
294.962
294.048
293.138
292.233
291.335
290.444
289.557
288.675
287.796
286.92
286.047
285.175
284.305
283.435
295.961
295.056
294.14
293.224
292.314
291.409
290.509
289.615
288.725
287.838
286.955
286.074
285.194
284.316
283.439
296.096
295.158
294.23
293.307
292.39
291.478
290.571
289.669
288.772
287.878
286.987
286.099
285.212
284.327
283.442
296.18
295.252
294.317
293.386
292.461
291.542
290.629
289.72
288.816
287.915
287.018
286.122
285.229
284.337
283.446
296.325
295.351
294.401
293.461
292.529
291.603
290.683
289.768
288.857
287.95
287.046
286.145
285.245
284.346
283.449
296.398
295.433
294.476
293.529
292.591
291.659
290.733
289.813
288.896
287.983
287.073
286.166
285.26
284.355
283.452
296.496
295.51
294.545
293.592
292.648
291.711
290.78
289.854
288.932
288.014
287.098
286.185
285.274
284.364
283.455
296.546
295.57
294.604
293.648
292.7
291.758
290.823
289.892
288.965
288.042
287.121
286.203
285.287
284.372
283.457
296.609
295.624
294.656
293.697
292.746
291.801
290.862
289.927
288.996
288.068
287.143
286.22
285.299
284.379
283.46
296.638
295.666
294.7
293.741
292.788
291.84
290.897
289.959
289.024
288.092
287.163
286.235
285.31
284.385
283.462
296.663
295.702
294.739
293.78
292.825
291.875
290.93
289.988
289.049
288.114
287.181
286.25
285.32
284.392
283.464
296.708
295.739
294.775
293.815
292.859
291.907
290.959
290.014
289.073
288.134
287.197
286.263
285.329
284.397
283.466
296.736
295.773
294.809
293.847
292.889
291.936
290.985
290.038
289.094
288.152
287.213
286.275
285.338
284.402
283.467
296.782
295.807
294.839
293.876
292.917
291.961
291.009
290.06
289.113
288.169
287.226
286.285
285.346
284.407
283.469
296.805
295.834
294.866
293.902
292.941
291.984
291.03
290.079
289.13
288.184
287.239
286.295
285.353
284.411
283.47
296.834
295.858
294.889
293.925
292.963
292.005
291.05
290.097
289.146
288.197
287.25
286.304
285.359
284.415
283.472
296.849
295.878
294.909
293.944
292.982
292.023
291.067
290.112
289.16
288.209
287.26
286.312
285.365
284.419
283.473
296.867
295.894
294.926
293.962
292.999
292.04
291.082
290.126
289.172
288.22
287.269
286.319
285.37
284.422
283.474
296.875
295.907
294.941
293.976
293.014
292.054
291.095
290.139
289.184
288.23
287.277
286.326
285.375
284.425
283.475
296.882
295.918
294.953
293.989
293.027
292.066
291.107
290.15
289.194
288.239
287.285
286.332
285.379
284.427
283.476
296.894
295.929
294.964
294.001
293.039
292.078
291.118
290.16
289.202
288.246
287.291
286.337
285.383
284.43
283.476
296.902
295.938
294.974
294.011
293.049
292.087
291.127
290.168
289.21
288.253
287.297
286.341
285.386
284.432
283.477
296.914
295.948
294.983
294.02
293.058
292.096
291.136
290.176
289.217
288.259
287.302
286.345
285.389
284.433
283.478
296.92
295.955
294.991
294.028
293.065
292.104
291.143
290.183
289.223
288.265
287.307
286.349
285.392
284.435
283.478
296.927
295.962
294.998
294.035
293.072
292.11
291.149
290.189
289.229
288.269
287.311
286.352
285.394
284.436
283.479
296.931
295.967
295.004
294.041
293.078
292.116
291.155
290.194
289.233
288.274
287.314
286.355
285.396
284.438
283.479
296.936
295.972
295.008
294.046
293.083
292.121
291.16
290.198
289.238
288.277
287.317
286.358
285.398
284.439
283.48
296.938
295.975
295.012
294.05
293.088
292.125
291.164
290.202
289.241
288.28
287.32
286.36
285.4
284.44
283.48
296.939
295.978
295.016
294.054
293.091
292.129
291.167
290.206
289.244
288.283
287.322
286.362
285.401
284.441
283.48
296.942
295.981
295.019
294.057
293.095
292.133
291.171
290.209
289.247
288.286
287.324
286.363
285.402
284.441
283.48
296.944
295.983
295.021
294.059
293.097
292.135
291.173
290.211
289.25
288.288
287.326
286.365
285.403
284.442
283.481
296.947
295.985
295.024
294.062
293.1