/*--------------------------------*- C++ -*----------------------------------*\
| =========                 |                                                 |
| \\      /  F ield         | OpenFOAM: The Open Source CFD Toolbox           |
|  \\    /   O peration     | Version:  5.x                                   |
|   \\  /    A nd           | Web:      www.OpenFOAM.org                      |
|    \\/     M anipulation  |                                                 |
\*---------------------------------------------------------------------------*/
FoamFile
{
    version     2.0;
    format      ascii;
    class       volScalarField;
    location    "2.3";
    object      gradTx;
}
// * * * * * * * * * * * * * * * * * * * * * * * * * * * * * * * * * * * * * //

dimensions      [0 -1 0 1 0 0 0];

internalField   nonuniform List<scalar> 
6300
(
-48.9939
-48.9627
-48.9003
-48.8064
-48.6807
-48.5231
-48.3334
-48.1116
-47.858
-47.5733
-47.2585
-46.9151
-46.5451
-46.1506
-45.7336
-49.0248
-48.9937
-48.9315
-48.8378
-48.7124
-48.555
-48.3653
-48.1432
-47.8889
-47.6031
-47.2868
-46.9416
-46.5695
-46.1728
-45.7541
-49.0865
-49.0557
-48.9939
-48.9008
-48.7759
-48.6189
-48.4293
-48.2067
-47.9512
-47.6633
-47.3439
-46.9947
-46.6182
-46.217
-45.7945
-49.1787
-49.1483
-49.0873
-48.9952
-48.8714
-48.7152
-48.5259
-48.3029
-48.0457
-47.7546
-47.4305
-47.0751
-46.6912
-46.2825
-45.8533
-49.3011
-49.2714
-49.2115
-49.121
-48.999
-48.8444
-48.6561
-48.4329
-48.1739
-47.8789
-47.5482
-47.1837
-46.7888
-46.3684
-45.9285
-49.453
-49.4242
-49.3661
-49.2781
-49.1589
-49.007
-48.8208
-48.5984
-48.338
-48.0384
-47.6995
-47.3226
-46.9118
-46.4736
-46.0168
-49.6335
-49.606
-49.5505
-49.466
-49.3511
-49.2038
-49.0216
-48.8017
-48.5411
-48.2372
-47.8884
-47.4953
-47.062
-46.5971
-46.1136
-49.8411
-49.8155
-49.7635
-49.6841
-49.5755
-49.4352
-49.2598
-49.0453
-48.7872
-48.4805
-48.1214
-47.7081
-47.2437
-46.7389
-46.2128
-50.0742
-50.0509
-50.0037
-49.9312
-49.8314
-49.7013
-49.5368
-49.3324
-49.0816
-48.7762
-48.4083
-47.9716
-47.4658
-46.9017
-46.3069
-50.3303
-50.31
-50.2687
-50.2052
-50.1173
-50.0015
-49.8533
-49.6659
-49.4302
-49.1342
-48.7638
-48.3042
-47.7459
-47.0953
-46.3885
-50.6064
-50.5897
-50.5558
-50.5034
-50.4306
-50.334
-50.2087
-50.0473
-49.8387
-49.5666
-49.2083
-48.7352
-48.118
-47.3447
-46.4542
-50.8988
-50.8863
-50.861
-50.8218
-50.7673
-50.6948
-50.6
-50.4758
-50.3105
-50.0848
-49.7674
-49.31
-48.6462
-47.7111
-46.514
-51.2034
-51.1955
-51.1796
-51.1553
-51.1218
-51.0777
-51.0204
-50.945
-50.8423
-50.6944
-50.4663
-50.0908
-49.4452
-48.3393
-46.6179
-51.5154
-51.5123
-51.5063
-51.4976
-51.4865
-51.4734
-51.4586
-51.4414
-51.4192
-51.3838
-51.3122
-51.1414
-50.7042
-49.5828
-46.9625
-51.8302
-51.8317
-51.8353
-51.8418
-51.8528
-51.8706
-51.8988
-51.9424
-52.009
-52.1093
-52.2568
-52.4579
-52.6469
-52.3248
-48.5712
-45.334
-44.9558
-44.5643
-44.1594
-43.7405
-43.3066
-42.8569
-42.3902
-41.906
-41.4041
-40.8849
-40.3494
-39.7993
-39.2368
-38.6644
-38.085
-37.5015
-36.9172
-36.3352
-35.7586
-35.1905
-34.634
-34.092
-33.5672
-33.0621
-32.5789
-32.1192
-31.6845
-31.2759
-30.894
-30.5393
-30.2117
-29.9112
-29.6371
-29.389
-29.1661
-28.9675
-28.7927
-28.6406
-28.5106
-28.4018
-28.3136
-28.2453
-28.1963
-28.1665
-28.1557
-28.1641
-28.1921
-28.2403
-28.3095
-28.4005
-28.514
-28.6505
-28.8104
-28.9939
-29.2009
-29.4311
-29.6837
-29.9581
-30.253
-30.5674
-30.8999
-31.2492
-31.6139
-31.9928
-32.3846
-32.7881
-33.2021
-33.6254
-34.0568
-34.4952
-34.9396
-35.389
-35.8426
-36.2995
-36.7591
-37.2207
-37.6836
-38.1471
-38.6105
-39.0733
-39.5348
-39.9946
-40.4519
-40.906
-41.3561
-41.8008
-42.2388
-42.6682
-43.087
-45.3534
-44.9748
-44.5836
-44.1795
-43.7619
-43.3295
-42.8811
-42.4155
-41.9316
-41.4291
-40.9084
-40.3705
-39.8173
-39.2511
-38.6746
-38.0909
-37.503
-36.9142
-36.3276
-35.7465
-35.174
-34.6134
-34.0675
-33.5392
-33.0311
-32.5453
-32.0835
-31.6474
-31.2377
-30.8554
-30.5006
-30.1734
-29.8734
-29.6003
-29.3532
-29.1314
-28.934
-28.7603
-28.6094
-28.4805
-28.3727
-28.2854
-28.2178
-28.1694
-28.1396
-28.1286
-28.1363
-28.1634
-28.2106
-28.2787
-28.3687
-28.4813
-28.6172
-28.7769
-28.9605
-29.168
-29.399
-29.6529
-29.9287
-30.2254
-30.5416
-30.876
-31.2272
-31.5938
-31.9744
-32.368
-32.7732
-33.1888
-33.6138
-34.0468
-34.4867
-34.9324
-35.383
-35.8376
-36.2956
-36.7561
-37.2187
-37.6825
-38.1469
-38.6112
-39.0748
-39.5371
-39.9977
-40.4561
-40.9115
-41.3633
-41.8102
-42.2507
-42.6829
-43.1048
-45.3913
-45.0118
-44.6212
-44.2191
-43.8044
-43.3755
-42.9303
-42.467
-41.9839
-41.4804
-40.9566
-40.4138
-39.8541
-39.2803
-38.6954
-38.1029
-37.5061
-36.9082
-36.3124
-35.7223
-35.1409
-34.5717
-34.0179
-33.4825
-32.9682
-32.4773
-32.0115
-31.5723
-31.1607
-30.7774
-30.4226
-30.0961
-29.7976
-29.5263
-29.2815
-29.062
-28.867
-28.6956
-28.547
-28.4203
-28.3148
-28.2294
-28.1634
-28.1159
-28.0864
-28.0748
-28.0812
-28.1064
-28.1512
-28.2169
-28.3046
-28.4154
-28.5501
-28.7093
-28.8931
-29.1016
-29.3344
-29.5908
-29.8697
-30.1699
-30.49
-30.8283
-31.1832
-31.5535
-31.9377
-32.3347
-32.7433
-33.1623
-33.5906
-34.0268
-34.4697
-34.9181
-35.3711
-35.8278
-36.2877
-36.7502
-37.2147
-37.6804
-38.1466
-38.6127
-39.0778
-39.5416
-40.0038
-40.464
-40.9219
-41.377
-41.8282
-42.274
-42.7122
-43.1406
-45.4459
-45.0649
-44.6753
-44.2766
-43.8673
-43.4447
-43.0056
-42.5468
-42.0657
-41.5609
-41.0323
-40.4816
-39.9114
-39.3254
-38.7275
-38.1214
-37.5108
-36.8991
-36.2896
-35.6855
-35.0905
-34.5082
-33.9422
-33.3958
-32.8721
-32.3734
-31.9016
-31.458
-31.0435
-30.6588
-30.3041
-29.9791
-29.683
-29.4149
-29.1736
-28.9578
-28.7664
-28.5986
-28.4535
-28.3304
-28.2283
-28.1462
-28.0828
-28.0371
-28.0081
-27.9956
-27.9997
-28.0215
-28.0623
-28.1239
-28.2078
-28.3156
-28.4483
-28.6066
-28.7907
-29.0007
-29.2362
-29.4965
-29.7803
-30.0862
-30.4123
-30.7567
-31.1176
-31.4934
-31.8828
-32.2848
-32.6985
-33.1227
-33.5561
-33.9974
-34.4448
-34.8973
-35.3537
-35.8134
-36.2761
-36.7413
-37.2086
-37.6773
-38.1465
-38.6151
-39.0825
-39.5482
-40.0122
-40.4748
-40.9361
-41.396
-41.8536
-42.3075
-42.7552
-43.1938
-45.514
-45.1304
-44.7424
-44.3494
-43.9493
-43.5377
-43.1093
-42.6588
-42.1818
-41.6756
-41.1401
-40.5774
-39.9917
-39.3879
-38.7713
-38.1465
-37.5174
-36.8872
-36.259
-35.636
-35.0221
-34.4214
-33.8383
-33.2769
-32.7403
-32.2312
-31.7514
-31.302
-30.8838
-30.4976
-30.1434
-29.8207
-29.5286
-29.2655
-29.0295
-28.819
-28.6325
-28.4694
-28.3289
-28.2106
-28.1135
-28.0364
-27.9774
-27.9346
-27.9067
-27.8928
-27.8933
-27.9097
-27.9441
-27.9991
-28.0772
-28.1804
-28.3101
-28.467
-28.6515
-28.8635
-29.1028
-29.3686
-29.6596
-29.9737
-30.3087
-30.6617
-31.0307
-31.4138
-31.8099
-32.2184
-32.6386
-33.0698
-33.5105
-33.9589
-34.4129
-34.8708
-35.3315
-35.7948
-36.2606
-36.7292
-37.2004
-37.6734
-38.1469
-38.6192
-39.0893
-39.5569
-40.0224
-40.487
-40.9519
-41.4177
-41.8841
-42.3494
-42.8107
-43.2642
-45.5906
-45.2023
-44.8163
-44.4326
-44.0476
-43.6546
-43.2449
-42.8091
-42.3398
-41.8325
-41.2869
-40.7066
-40.098
-39.469
-38.8271
-38.178
-37.5257
-36.8727
-36.2211
-35.5738
-34.9349
-34.3096
-33.7037
-33.1223
-32.5693
-32.0473
-31.5577
-31.1013
-30.6787
-30.2907
-29.9375
-29.6188
-29.333
-29.0774
-28.8492
-28.6459
-28.4657
-28.308
-28.173
-28.0607
-27.9707
-27.901
-27.849
-27.8114
-27.7855
-27.7697
-27.7646
-27.7724
-27.7967
-27.8416
-27.911
-28.0076
-28.1332
-28.2882
-28.473
-28.6875
-28.9316
-29.2049
-29.5058
-29.8317
-30.1791
-30.5442
-30.9237
-31.3157
-31.7194
-32.1351
-32.5632
-33.0034
-33.454
-33.9124
-34.3752
-34.8401
-35.3057
-35.7723
-36.241
-36.7132
-37.1895
-37.6687
-38.1485
-38.6262
-39.0996
-39.5682
-40.0335
-40.4983
-40.9658
-41.4382
-41.9158
-42.3966
-42.8768
-43.3513
-45.6677
-45.2706
-44.8869
-44.5176
-44.1575
-43.7958
-43.4178
-43.0077
-42.5525
-42.0446
-41.4838
-40.8765
-40.2339
-39.569
-38.8933
-38.2143
-37.5352
-36.8563
-36.1772
-35.4996
-34.8283
-34.1703
-33.5341
-32.927
-32.354
-31.8172
-31.3167
-30.8522
-30.4242
-30.0339
-29.6826
-29.3701
-29.0942
-28.8504
-28.6337
-28.44
-28.2668
-28.1145
-27.9847
-27.8794
-27.7989
-27.7408
-27.7005
-27.672
-27.6501
-27.6319
-27.6179
-27.6119
-27.62
-27.6493
-27.7059
-27.7937
-27.9142
-28.0672
-28.2521
-28.4691
-28.7188
-29.0017
-29.3163
-29.6591
-30.0244
-30.4061
-30.7991
-31.2009
-31.6118
-32.0341
-32.4706
-32.9221
-33.3865
-33.8593
-34.3348
-34.8085
-35.2786
-35.7465
-36.2161
-36.6914
-37.1742
-37.6629
-38.1531
-38.6391
-39.1164
-39.584
-40.0449
-40.5054
-40.9724
-41.4509
-41.9423
-42.4441
-42.9505
-43.4544
-45.7336
-45.3196
-44.9369
-44.5891
-44.2695
-43.9605
-43.6369
-43.2713
-42.841
-42.3331
-41.7478
-41.0972
-40.4019
-39.6847
-38.9642
-38.2508
-37.5448
-36.8403
-36.1314
-35.4168
-34.7026
-34
-33.3229
-32.683
-32.087
-31.5351
-31.0242
-30.551
-30.1157
-29.7213
-29.3721
-29.0693
-28.8095
-28.5847
-28.3857
-28.2048
-28.0386
-27.889
-27.7617
-27.6629
-27.5953
-27.5557
-27.5354
-27.5235
-27.5099
-27.4886
-27.4603
-27.4315
-27.4134
-27.4183
-27.4564
-27.5332
-27.6488
-27.8005
-27.9855
-28.204
-28.4588
-28.7531
-29.0866
-29.4543
-29.8464
-30.252
-30.6622
-31.0733
-31.4878
-31.913
-32.3565
-32.8222
-33.3071
-33.8023
-34.2969
-34.782
-35.2545
-35.7184
-36.1831
-36.6586
-37.1501
-37.6549
-38.1636
-38.6641
-39.1468
-39.609
-40.0567
-40.5028
-40.9619
-41.4446
-41.9536
-42.4843
-43.0277
-43.5726
-45.77
-45.3233
-44.9366
-44.62
-44.3662
-44.1464
-43.9164
-43.628
-43.2412
-42.7333
-42.1057
-41.3824
-40.6017
-39.805
-39.0253
-38.2769
-37.5522
-36.8309
-36.0938
-35.334
-34.5602
-33.7933
-33.0583
-32.3763
-31.7566
-31.1944
-30.6775
-30.1958
-29.7484
-29.3443
-28.9952
-28.7072
-28.4746
-28.2824
-28.1121
-27.949
-27.787
-27.6318
-27.4981
-27.402
-27.3519
-27.343
-27.3589
-27.3781
-27.3811
-27.3561
-27.3036
-27.2361
-27.174
-27.1399
-27.1516
-27.2171
-27.3321
-27.4861
-27.671
-27.8869
-28.1424
-28.4481
-28.8082
-29.2145
-29.6493
-30.0915
-30.5242
-30.9409
-31.3487
-31.7654
-32.2106
-32.6948
-33.2127
-33.7463
-34.2728
-34.7737
-35.2427
-35.689
-36.1344
-36.6025
-37.1066
-37.6411
-38.1858
-38.7145
-39.2065
-39.6547
-40.0706
-40.4811
-40.9171
-41.4
-41.9331
-42.506
-43.1021
-43.7051
-45.7506
-45.2406
-44.8352
-44.5601
-44.414
-44.3471
-44.2799
-44.1267
-43.8156
-43.3059
-42.6016
-41.7504
-40.8244
-39.901
-39.0415
-38.269
-37.555
-36.8445
-36.0892
-35.2713
-34.4083
-33.5408
-32.7177
-31.98
-31.3436
-30.789
-30.2807
-29.7914
-29.3194
-28.8883
-28.5306
-28.2656
-28.0821
-27.9489
-27.8288
-27.6919
-27.526
-27.3441
-27.1809
-27.0752
-27.0499
-27.0951
-27.1779
-27.2565
-27.293
-27.2638
-27.1692
-27.0335
-26.895
-26.7958
-26.77
-26.8302
-26.9595
-27.1277
-27.3122
-27.5132
-27.7541
-28.0653
-28.4634
-28.9341
-29.4419
-29.9449
-30.4094
-30.8216
-31.1971
-31.5771
-32.0087
-32.519
-33.096
-33.7006
-34.2853
-34.8114
-35.2636
-35.661
-36.0527
-36.4945
-37.019
-37.6127
-38.2306
-38.8176
-39.329
-39.7464
-40.0918
-40.4222
-40.8044
-41.2825
-41.8552
-42.4936
-43.1662
-43.8507
-45.6362
-45.0071
-44.5459
-44.3145
-44.3474
-44.5481
-44.7673
-44.8525
-44.6764
-44.1586
-43.3091
-42.2262
-41.0436
-39.9052
-38.9323
-38.1772
-37.5527
-36.9229
-36.1749
-35.2738
-34.2633
-33.2247
-32.2546
-31.4382
-30.8132
-30.3173
-29.8568
-29.3626
-28.8318
-28.3272
-27.9333
-27.7069
-27.6179
-27.5971
-27.5701
-27.4772
-27.2887
-27.0303
-26.7812
-26.6334
-26.647
-26.7937
-27.0037
-27.1963
-27.3001
-27.2661
-27.0948
-26.8356
-26.5598
-26.3465
-26.2649
-26.3445
-26.5315
-26.7463
-26.9299
-27.0827
-27.265
-27.5578
-28.0146
-28.6007
-29.2415
-29.854
-30.3704
-30.7554
-31.0391
-31.3148
-31.6935
-32.2472
-32.9396
-33.6836
-34.3821
-34.9557
-35.3634
-35.6411
-35.8989
-36.2674
-36.8316
-37.5492
-38.3195
-39.0294
-39.5863
-39.9416
-40.1343
-40.2885
-40.5529
-41.0287
-41.682
-42.4317
-43.2126
-44.0055
-45.3655
-44.5317
-43.9254
-43.6883
-44.0389
-44.7223
-45.4477
-45.9544
-46.0291
-45.489
-44.3528
-42.8457
-41.1992
-39.6712
-38.5097
-37.8976
-37.5584
-37.1716
-36.4815
-35.4339
-34.1591
-32.8103
-31.5706
-30.6209
-30.0974
-29.7949
-29.4818
-28.9868
-28.3069
-27.6072
-27.0951
-26.9508
-27.0559
-27.2549
-27.407
-27.4007
-27.1524
-26.7038
-26.2362
-25.96
-26.0529
-26.4021
-26.855
-27.2648
-27.5062
-27.4668
-27.1474
-26.6624
-26.1352
-25.7084
-25.5285
-25.7046
-26.0639
-26.4106
-26.5924
-26.6103
-26.6171
-26.8149
-27.3798
-28.1892
-29.0823
-29.9021
-30.5207
-30.8353
-30.8929
-30.9046
-31.1263
-31.7762
-32.7089
-33.7321
-34.6591
-35.3387
-35.6503
-35.6497
-35.5857
-35.7583
-36.4229
-37.4099
-38.4949
-39.4613
-40.1335
-40.3707
-40.2318
-39.9956
-39.9965
-40.5186
-41.3694
-42.3244
-43.241
-44.1476
-44.8055
-43.7287
-42.7733
-42.2158
-43.2514
-44.836
-46.443
-47.6782
-48.2675
-47.6777
-45.9305
-43.6663
-41.1842
-38.9094
-37.2961
-37.2253
-37.6328
-37.8571
-37.3032
-35.9216
-34.1616
-32.2391
-30.4691
-29.1904
-29.0635
-29.2882
-29.3692
-28.8779
-27.8107
-26.6175
-25.7278
-25.8361
-26.359
-26.9809
-27.4723
-27.6733
-27.3051
-26.4052
-25.4162
-24.7553
-25.0904
-25.8615
-26.769
-27.5763
-28.1172
-28.0711
-27.4393
-26.5503
-25.5666
-24.715
-24.2799
-24.8013
-25.6152
-26.3125
-26.4916
-26.1541
-25.6947
-25.5435
-26.3932
-27.6573
-29.0292
-30.2401
-31.1092
-31.2856
-30.813
-30.1921
-29.9428
-30.8979
-32.348
-33.9194
-35.2923
-36.2516
-36.3869
-35.7494
-34.9317
-34.5407
-35.5496
-37.1293
-38.8407
-40.3166
-41.307
-41.3408
-40.469
-39.361
-38.6894
-39.5347
-40.9064
-42.2717
-43.2831
-44.1581
-43.441
-42.7506
-41.0482
-38.449
-41.6729
-44.9175
-47.9735
-50.3323
-52.2037
-51.5329
-48.2529
-44.8006
-40.8706
-37.1954
-33.8614
-35.8646
-37.971
-39.6635
-39.3169
-36.9546
-34.3984
-31.4488
-28.6603
-26.1019
-27.5236
-28.9887
-30.0813
-29.5986
-27.4963
-25.1913
-22.9239
-24.1247
-25.5203
-26.8954
-27.9563
-28.7659
-28.2242
-26.2356
-24.1244
-22.1172
-23.5006
-25.1252
-26.8281
-28.2719
-29.5745
-29.5196
-28.1023
-26.5753
-24.8087
-23.1224
-21.6546
-23.4773
-25.335
-26.9612
-27.1353
-25.8741
-24.3288
-22.8314
-24.8102
-26.9709
-29.2081
-31.0707
-32.6956
-32.671
-30.9467
-28.9447
-27.0254
-29.307
-31.8125
-34.3924
-36.5214
-38.3508
-38.2365
-36.1083
-33.6632
-31.3069
-33.8544
-36.6585
-39.5255
-41.8708
-43.8574
-43.6145
-41.0461
-38.0973
-35.1976
-37.792
-40.4523
-42.7279
-43.5207
-43.4164
-38.4097
-43.2294
-40.614
-26.297
-40.0647
-45.2707
-50.5077
-53.6884
-59.8008
-59.1456
-50.8234
-46.6228
-40.1902
-34.9902
-22.7414
-34.3556
-38.9053
-44.4065
-44.2336
-38.2671
-35.2018
-30.4268
-26.5207
-17.2821
-25.9216
-29.2261
-33.0624
-32.6518
-27.4742
-23.7116
-15.1259
-22.1335
-24.7117
-27.2627
-28.803
-31.8051
-31.2276
-26.2432
-22.6832
-14.5974
-21.5639
-24.277
-27.261
-29.1717
-32.9871
-32.9309
-28.924
-26.9458
-23.9356
-21.2159
-14.2915
-22.1033
-25.3886
-29.7016
-29.8464
-26.0037
-22.8944
-15.1139
-22.9656
-26.1748
-29.9271
-32.2437
-36.6577
-36.5042
-31.4807
-27.5786
-18.0587
-27.3937
-31.1699
-35.5149
-38.182
-43.249
-42.9859
-36.9236
-32.2668
-21.0116
-31.7895
-36.0971
-40.961
-43.9412
-49.6179
-49.2364
-42.1704
-36.7625
-23.7941
-35.9538
-40.5516
-45.3187
-45.0503
-38.6368
-43.5321
-43.9973
-44.4369
-44.8477
-45.227
-45.5727
-45.8835
-46.1586
-46.398
-46.6018
-46.7704
-46.9044
-47.0042
-47.0705
-47.1035
-43.5534
-44.0223
-44.4652
-44.8787
-45.2599
-45.6069
-45.9184
-46.1938
-46.433
-46.6364
-46.8044
-46.9378
-47.0372
-47.1031
-47.136
-43.5963
-44.0728
-44.5224
-44.9413
-45.3266
-45.6761
-45.9889
-46.2645
-46.5032
-46.7056
-46.8724
-47.0046
-47.103
-47.1681
-47.2006
-43.6611
-44.1496
-44.6097
-45.037
-45.4283
-45.7815
-46.0959
-46.3716
-46.6092
-46.8097
-46.9745
-47.1047
-47.2013
-47.2652
-47.297
-43.7484
-44.2542
-44.7293
-45.1682
-45.5674
-45.9251
-46.2411
-46.516
-46.7514
-46.949
-47.1105
-47.2376
-47.3317
-47.3938
-47.4246
-43.8591
-44.3891
-44.8844
-45.3385
-45.7474
-46.1099
-46.4266
-46.6994
-46.9309
-47.1237
-47.2803
-47.403
-47.4934
-47.5529
-47.5825
-43.995
-44.558
-45.0803
-45.5534
-45.9733
-46.3399
-46.6554
-46.9235
-47.1484
-47.3339
-47.4835
-47.5998
-47.6853
-47.7414
-47.7692
-44.159
-44.7673
-45.3248
-45.8209
-46.2521
-46.6204
-46.931
-47.1904
-47.4047
-47.5795
-47.7191
-47.827
-47.9058
-47.9575
-47.983
-44.356
-45.0268
-45.6303
-46.1528
-46.5932
-46.9581
-47.2574
-47.5017
-47.7
-47.8595
-47.9857
-48.0825
-48.153
-48.1989
-48.2216
-44.5941
-45.3532
-46.0161
-46.5662
-47.0091
-47.3607
-47.6385
-47.8587
-48.0336
-48.1722
-48.2809
-48.3638
-48.4239
-48.463
-48.4823
-44.8858
-45.7751
-46.5138
-47.0861
-47.5156
-47.8359
-48.0767
-48.2605
-48.403
-48.5145
-48.6012
-48.6672
-48.715
-48.7461
-48.7615
-45.2486
-46.3469
-47.1772
-47.7483
-48.1303
-48.3894
-48.5708
-48.703
-48.8031
-48.8809
-48.9416
-48.9881
-49.022
-49.0443
-49.0554
-45.7103
-47.1861
-48.0994
-48.5994
-48.868
-49.0197
-49.113
-49.1769
-49.2251
-49.2638
-49.2955
-49.3209
-49.3401
-49.353
-49.3595
-46.3717
-48.5875
-49.4334
-49.681
-49.7226
-49.7073
-49.6837
-49.6658
-49.6561
-49.6534
-49.6551
-49.6592
-49.6636
-49.6673
-49.6693
-48.0556
-51.3581
-51.3648
-50.968
-50.6338
-50.4019
-50.2474
-50.1458
-50.0798
-50.0379
-50.0119
-49.9963
-49.9873
-49.9825
-49.9804
-52.1169
-52.1224
-52.1339
-52.153
-52.182
-52.225
-52.2879
-52.3804
-52.5184
-52.7306
-53.0733
-53.6755
-54.896
-57.9837
-68.2588
-52.3736
-52.382
-52.3998
-52.4286
-52.4715
-52.5331
-52.6209
-52.7467
-52.9298
-53.2044
-53.635
-54.3527
-55.644
-58.1364
-62.8792
-52.624
-52.635
-52.6577
-52.6942
-52.7476
-52.8228
-52.9274
-53.0729
-53.2773
-53.5697
-53.9969
-54.6313
-55.5578
-56.7261
-57.1779
-52.8666
-52.8794
-52.9059
-52.9479
-53.0084
-53.092
-53.2053
-53.358
-53.5635
-53.8408
-54.2144
-54.7071
-55.3032
-55.8131
-55.4132
-53.0999
-53.114
-53.1429
-53.1883
-53.2528
-53.3403
-53.4557
-53.606
-53.7994
-54.0447
-54.3491
-54.7107
-55.1084
-55.5316
-56.3435
-53.3232
-53.338
-53.3682
-53.4153
-53.4812
-53.5688
-53.6818
-53.8239
-53.9987
-54.2071
-54.4437
-54.6891
-54.8953
-54.9801
-54.8729
-53.5358
-53.5509
-53.5815
-53.6288
-53.6942
-53.7797
-53.8873
-54.0189
-54.1743
-54.3495
-54.5323
-54.6942
-54.7663
-54.5616
-53.3321
-53.7377
-53.7526
-53.783
-53.8294
-53.893
-53.9749
-54.0762
-54.197
-54.3355
-54.4859
-54.6355
-54.7614
-54.8291
-54.8545
-55.4422
-53.9287
-53.9434
-53.9729
-54.0178
-54.0788
-54.1565
-54.2512
-54.3625
-54.488
-54.6222
-54.7551
-54.8687
-54.9207
-54.7569
-53.4644
-54.1092
-54.1234
-54.1518
-54.1948
-54.2528
-54.326
-54.4146
-54.5178
-54.6338
-54.7588
-54.888
-55.0185
-55.1618
-55.4428
-56.7698
-54.2796
-54.2931
-54.3202
-54.3611
-54.4159
-54.4848
-54.5677
-54.664
-54.7726
-54.8917
-55.0201
-55.1591
-55.3067
-55.4022
-54.8253
-54.4401
-54.4529
-54.4786
-54.5173
-54.5689
-54.6336
-54.7112
-54.8015
-54.9037
-55.0175
-55.1447
-55.2934
-55.4872
-55.8284
-56.9382
-54.5913
-54.6035
-54.6277
-54.6641
-54.7127
-54.7733
-54.8459
-54.9302
-55.026
-55.1333
-55.2543
-55.396
-55.5648
-55.7207
-55.3735
-54.7337
-54.7451
-54.768
-54.8022
-54.8477
-54.9044
-54.9722
-55.0508
-55.1397
-55.2387
-55.3495
-55.4795
-55.6508
-55.9621
-56.94
-54.8677
-54.8785
-54.8999
-54.932
-54.9747
-55.0277
-55.0909
-55.1638
-55.2456
-55.3352
-55.4314
-55.5338
-55.639
-55.7404
-55.8237
-54.9939
-55.004
-55.0241
-55.0542
-55.0941
-55.1437
-55.2026
-55.2702
-55.3456
-55.4264
-55.509
-55.586
-55.6292
-55.5311
-54.7705
-55.1125
-55.122
-55.1409
-55.1692
-55.2066
-55.253
-55.308
-55.3711
-55.441
-55.5154
-55.5906
-55.6611
-55.7168
-55.7816
-56.2633
-55.2241
-55.2331
-55.2509
-55.2774
-55.3125
-55.356
-55.4076
-55.4668
-55.5325
-55.6029
-55.6755
-55.7463
-55.7974
-55.7425
-55.0275
-55.3291
-55.3375
-55.3543
-55.3792
-55.4123
-55.4532
-55.5018
-55.5577
-55.6201
-55.6881
-55.7617
-55.8448
-55.9509
-56.1615
-57.0175
-55.4278
-55.4357
-55.4515
-55.4751
-55.5063
-55.5449
-55.5908
-55.6437
-55.703
-55.7685
-55.8413
-55.9269
-56.031
-56.1322
-55.8911
-55.5204
-55.5279
-55.5429
-55.5652
-55.5948
-55.6313
-55.6748
-55.7248
-55.7809
-55.8429
-55.9121
-55.9957
-56.1126
-56.3402
-57.0666
-55.6073
-55.6145
-55.6287
-55.65
-55.678
-55.7127
-55.7539
-55.8012
-55.854
-55.9113
-55.9729
-56.0409
-56.1166
-56.2016
-56.2892
-55.6888
-55.6956
-55.7092
-55.7295
-55.7563
-55.7894
-55.8287
-55.8735
-55.9231
-55.9757
-56.0293
-56.0805
-56.1134
-56.0609
-55.579
-55.765
-55.7716
-55.7846
-55.8041
-55.8298
-55.8616
-55.8993
-55.9422
-55.9893
-56.0386
-56.0873
-56.1324
-56.1689
-56.2181
-56.5594
-55.8362
-55.8425
-55.8551
-55.8739
-55.8988
-55.9295
-55.966
-56.0076
-56.0532
-56.1008
-56.1477
-56.19
-56.2147
-56.1721
-55.764
-55.9024
-55.9085
-55.9208
-55.9391
-55.9633
-55.9933
-56.0289
-56.0698
-56.1149
-56.1627
-56.2112
-56.2595
-56.3064
-56.3798
-56.7619
-55.9638
-55.9698
-55.9818
-55.9996
-56.0234
-56.0528
-56.088
-56.1286
-56.1739
-56.223
-56.2749
-56.3295
-56.3789
-56.3729
-55.9615
-56.0205
-56.0264
-56.0381
-56.0557
-56.0791
-56.1082
-56.1431
-56.1836
-56.2295
-56.2803
-56.3367
-56.4029
-56.489
-56.6471
-57.2126
-56.0725
-56.0784
-56.09
-56.1073
-56.1304
-56.1593
-56.194
-56.2346
-56.2809
-56.3328
-56.3916
-56.462
-56.5483
-56.6382
-56.5327
-56.12
-56.1258
-56.1373
-56.1545
-56.1774
-56.2061
-56.2406
-56.2811
-56.3274
-56.3794
-56.4383
-56.5097
-56.6042
-56.7648
-57.2079
-56.1629
-56.1686
-56.18
-56.1972
-56.22
-56.2485
-56.2829
-56.3232
-56.3691
-56.4202
-56.4765
-56.5408
-56.6135
-56.6948
-56.7762
-56.2013
-56.207
-56.2183
-56.2354
-56.2582
-56.2866
-56.3209
-56.361
-56.4064
-56.4561
-56.5093
-56.5655
-56.616
-56.6243
-56.4082
-56.2351
-56.2408
-56.2522
-56.2692
-56.292
-56.3204
-56.3547
-56.3946
-56.4396
-56.4885
-56.54
-56.5938
-56.647
-56.7094
-56.9177
-56.2644
-56.2701
-56.2815
-56.2986
-56.3214
-56.3499
-56.3843
-56.4243
-56.4693
-56.5181
-56.5692
-56.622
-56.6706
-56.693
-56.5584
-56.2891
-56.2948
-56.3063
-56.3235
-56.3464
-56.3752
-56.4097
-56.45
-56.4955
-56.5448
-56.5971
-56.6528
-56.7115
-56.7852
-56.9909
-56.3092
-56.315
-56.3265
-56.3439
-56.367
-56.396
-56.431
-56.4718
-56.5179
-56.5685
-56.6226
-56.6812
-56.7412
-56.7854
-56.6956
-56.3247
-56.3306
-56.3422
-56.3597
-56.3831
-56.4125
-56.4479
-56.4894
-56.5365
-56.5884
-56.6449
-56.7082
-56.7808
-56.8784
-57.1064
-56.3356
-56.3415
-56.3533
-56.371
-56.3947
-56.4244
-56.4604
-56.5026
-56.5507
-56.604
-56.6625
-56.7284
-56.8021
-56.8806
-56.922
-56.3417
-56.3477
-56.3596
-56.3776
-56.4016
-56.4318
-56.4683
-56.5112
-56.5603
-56.6148
-56.6749
-56.7428
-56.8193
-56.9082
-57.0363
-56.3431
-56.3491
-56.3613
-56.3795
-56.4038
-56.4344
-56.4715
-56.5151
-56.5651
-56.6207
-56.6819
-56.7508
-56.8269
-56.9081
-56.9849
-56.3396
-56.3458
-56.3581
-56.3765
-56.4012
-56.4323
-56.47
-56.5143
-56.5649
-56.6214
-56.6835
-56.7533
-56.8299
-56.9109
-56.9944
-56.3313
-56.3375
-56.35
-56.3687
-56.3938
-56.4253
-56.4635
-56.5085
-56.5598
-56.617
-56.6798
-56.7506
-56.8289
-56.9117
-56.9758
-56.3179
-56.3243
-56.3369
-56.356
-56.3814
-56.4135
-56.4522
-56.4977
-56.5497
-56.6073
-56.6707
-56.7423
-56.8239
-56.925
-57.1035
-56.2996
-56.306
-56.3189
-56.3382
-56.3641
-56.3966
-56.4359
-56.482
-56.5345
-56.5926
-56.6558
-56.7265
-56.8045
-56.8842
-56.8961
-56.2761
-56.2826
-56.2957
-56.3154
-56.3417
-56.3747
-56.4147
-56.4614
-56.5145
-56.5729
-56.6358
-56.7051
-56.783
-56.8901
-57.1718
-56.2474
-56.254
-56.2673
-56.2874
-56.3141
-56.3478
-56.3884
-56.436
-56.4899
-56.5488
-56.6114
-56.6773
-56.7402
-56.7745
-56.6229
-56.2134
-56.2202
-56.2337
-56.2541
-56.2814
-56.3156
-56.3571
-56.4056
-56.4607
-56.5209
-56.5846
-56.6512
-56.7163
-56.7876
-57.0049
-56.1741
-56.181
-56.1948
-56.2155
-56.2433
-56.2782
-56.3205
-56.3703
-56.427
-56.4893
-56.556
-56.6256
-56.687
-56.699
-56.4679
-56.1293
-56.1363
-56.1503
-56.1714
-56.1997
-56.2354
-56.2786
-56.3297
-56.3882
-56.4535
-56.5253
-56.6051
-56.6911
-56.7789
-56.8564
-56.079
-56.0861
-56.1004
-56.1218
-56.1506
-56.1869
-56.2311
-56.2833
-56.3437
-56.4119
-56.489
-56.5799
-56.6929
-56.8656
-57.307
-56.0231
-56.0303
-56.0448
-56.0666
-56.0958
-56.1327
-56.1776
-56.2309
-56.2926
-56.3629
-56.4432
-56.5388
-56.6523
-56.7654
-56.6666
-55.9615
-55.9688
-55.9835
-56.0056
-56.0352
-56.0726
-56.1181
-56.172
-56.2345
-56.3056
-56.3869
-56.4849
-56.611
-56.812
-57.3715
-55.8942
-55.9016
-55.9164
-55.9387
-55.9687
-56.0065
-56.0525
-56.1068
-56.1694
-56.2398
-56.319
-56.4109
-56.5166
-56.6093
-56.3964
-55.821
-55.8285
-55.8435
-55.866
-55.8963
-55.9345
-55.9808
-56.0353
-56.0977
-56.1668
-56.2422
-56.3269
-56.4301
-56.6186
-57.3586
-55.742
-55.7495
-55.7646
-55.7874
-55.8179
-55.8565
-55.9031
-55.958
-56.0202
-56.088
-56.1589
-56.2297
-56.2834
-56.2446
-55.6359
-55.657
-55.6646
-55.6798
-55.7028
-55.7336
-55.7724
-55.8196
-55.8749
-55.9377
-56.0058
-56.0759
-56.1437
-56.2
-56.266
-56.706
-55.5661
-55.5737
-55.589
-55.6121
-55.6431
-55.6824
-55.7301
-55.7863
-55.8505
-55.9208
-55.9943
-56.0654
-56.1087
-56.0272
-55.354
-55.4691
-55.4768
-55.4922
-55.5153
-55.5465
-55.5861
-55.6343
-55.6916
-55.7578
-55.8323
-55.9146
-56.0059
-56.103
-56.1991
-56.2791
-55.3662
-55.3738
-55.3892
-55.4124
-55.4437
-55.4834
-55.5321
-55.5903
-55.6584
-55.737
-55.8286
-55.9418
-56.097
-56.3817
-57.2683
-55.2572
-55.2648
-55.2802
-55.3033
-55.3345
-55.3742
-55.4229
-55.4815
-55.5505
-55.6314
-55.7275
-55.8482
-55.9999
-56.1459
-55.8401
-55.1422
-55.1498
-55.165
-55.188
-55.219
-55.2584
-55.3067
-55.3649
-55.4334
-55.5137
-55.6096
-55.7324
-55.9059
-56.2236
-57.2496
-55.0213
-55.0288
-55.0438
-55.0665
-55.0971
-55.1359
-55.1836
-55.2405
-55.3071
-55.3838
-55.4729
-55.5811
-55.7106
-55.8089
-55.3067
-54.8945
-54.9019
-54.9166
-54.939
-54.969
-55.0071
-55.0536
-55.1089
-55.1725
-55.2439
-55.323
-55.4144
-55.536
-55.8111
-57.0971
-54.7619
-54.7691
-54.7836
-54.8054
-54.8348
-54.8721
-54.9174
-54.9709
-55.0316
-55.0974
-55.1645
-55.2263
-55.2537
-55.1108
-53.9327
-54.6235
-54.6305
-54.6447
-54.6661
-54.6948
-54.7311
-54.7753
-54.8273
-54.886
-54.9485
-55.0098
-55.0615
-55.0885
-55.1291
-55.8153
-54.4795
-54.4864
-54.5002
-54.521
-54.5489
-54.5844
-54.6276
-54.6786
-54.7366
-54.7992
-54.8616
-54.9134
-54.9129
-54.6988
-53.4856
-54.3301
-54.3367
-54.3501
-54.3703
-54.3974
-54.4319
-54.4741
-54.5245
-54.5828
-54.6485
-54.721
-54.8011
-54.8844
-54.962
-55.0195
-54.1753
-54.1817
-54.1946
-54.2141
-54.2404
-54.2738
-54.3148
-54.3642
-54.4228
-54.4918
-54.5752
-54.6862
-54.8587
-55.2389
-56.602
-54.0153
-54.0215
-54.034
-54.0527
-54.0779
-54.1099
-54.1494
-54.1972
-54.2545
-54.3236
-54.4103
-54.5279
-54.6878
-54.8327
-54.2575
-53.8504
-53.8563
-53.8682
-53.8861
-53.9102
-53.9406
-53.978
-54.023
-54.0768
-54.1418
-54.2239
-54.3399
-54.5261
-54.9262
-56.4046
-53.6806
-53.6863
-53.6977
-53.7147
-53.7375
-53.7662
-53.8009
-53.8422
-53.8904
-53.9466
-54.0142
-54.1025
-54.2148
-54.2706
-53.4127
-53.5061
-53.5116
-53.5225
-53.5388
-53.5603
-53.5871
-53.6191
-53.656
-53.6973
-53.742
-53.7901
-53.8479
-53.9416
-54.2492
-56.0081
-53.3271
-53.3324
-53.3429
-53.3586
-53.3791
-53.4042
-53.4335
-53.4663
-53.5008
-53.5336
-53.5593
-53.5678
-53.5188
-53.2196
-51.4398
-53.1437
-53.1489
-53.1592
-53.1744
-53.1941
-53.2179
-53.2453
-53.2749
-53.3043
-53.3288
-53.3406
-53.3272
-53.2685
-53.2179
-54.0381
-52.956
-52.9612
-52.9714
-52.9864
-53.0058
-53.029
-53.0552
-53.0831
-53.1101
-53.1315
-53.1393
-53.1177
-53.0115
-52.611
-50.8833
-52.764
-52.7693
-52.7796
-52.7948
-52.8143
-52.8376
-52.8637
-52.8914
-52.9186
-52.9421
-52.9587
-52.9662
-52.9579
-52.9254
-52.8687
-52.5677
-52.5731
-52.5839
-52.5996
-52.6198
-52.6439
-52.6708
-52.6996
-52.7285
-52.7562
-52.7843
-52.8252
-52.92
-53.2563
-54.8234
-52.3668
-52.3726
-52.384
-52.4007
-52.4222
-52.4478
-52.4765
-52.5071
-52.5382
-52.5687
-52.6011
-52.6462
-52.7134
-52.7321
-51.8541
-52.1612
-52.1675
-52.1798
-52.1979
-52.2213
-52.2492
-52.2806
-52.3139
-52.3471
-52.3784
-52.4092
-52.4514
-52.5394
-52.8301
-54.3045
-51.9507
-51.9575
-51.971
-51.9909
-52.0168
-52.0479
-52.0831
-52.1202
-52.1563
-52.1871
-52.2095
-52.2242
-52.2235
-52.1058
-50.9293
-51.7347
-51.7421
-51.757
-51.7791
-51.8081
-51.8435
-51.8839
-51.9268
-51.9679
-52.0002
-52.0151
-52.0072
-51.9878
-52.1164
-53.6036
-51.5128
-51.521
-51.5373
-51.5619
-51.5947
-51.6353
-51.6826
-51.7342
-51.7846
-51.8241
-51.8367
-51.7976
-51.6484
-51.1831
-49.2236
-51.2847
-51.2935
-51.3113
-51.3385
-51.3753
-51.4221
-51.4782
-51.5419
-51.6079
-51.6651
-51.6942
-51.6641
-51.5273
-51.2871
-51.5867
-51.0497
-51.0591
-51.0782
-51.1078
-51.1487
-51.202
-51.2684
-51.3476
-51.436
-51.5243
-51.593
-51.6043
-51.4768
-51.016
-49.502
-50.8075
-50.8172
-50.8373
-50.8686
-50.913
-50.9724
-51.0495
-51.1463
-51.2631
-51.3959
-51.5315
-51.6404
-51.6568
-51.4758
-51.0384
-50.5579
-50.5676
-50.5878
-50.6199
-50.6663
-50.7304
-50.8166
-50.9306
-51.0782
-51.2641
-51.4888
-51.7403
-51.9728
-52.1134
-52.2791
-50.3009
-50.3101
-50.3295
-50.3608
-50.407
-50.4726
-50.5642
-50.691
-50.8655
-51.1041
-51.4274
-51.8529
-52.3517
-52.7331
-52.3966
-50.0368
-50.045
-50.0623
-50.0907
-50.1337
-50.1965
-50.2872
-50.4179
-50.6071
-50.8838
-51.2952
-51.9141
-52.811
-53.8511
-53.5348
-49.7665
-49.7729
-49.7867
-49.81
-49.8461
-49.9007
-49.9821
-50.1038
-50.287
-50.5688
-51.019
-51.7819
-53.1699
-55.9107
-61.5944
-49.491
-49.4951
-49.504
-49.5198
-49.5454
-49.5859
-49.6489
-49.7463
-49.8974
-50.1355
-50.5259
-51.2152
-52.5882
-55.9265
-66.4756
-67.6108
-56.9183
-53.5038
-52.09
-51.3753
-50.9666
-50.7145
-50.5523
-50.4458
-50.3753
-50.3288
-50.2985
-50.2794
-50.2682
-50.263
-63.0581
-56.9184
-54.0578
-52.6243
-51.837
-51.3701
-51.0759
-50.8828
-50.7531
-50.6651
-50.6053
-50.5651
-50.5389
-50.5231
-50.5157
-54.0315
-54.6408
-53.6198
-52.7094
-52.0762
-51.6525
-51.366
-51.1687
-51.0313
-50.9351
-50.8679
-50.8215
-50.7905
-50.7716
-50.7627
-53.3348
-53.4946
-53.1039
-52.6019
-52.1699
-51.8387
-51.5931
-51.4126
-51.2806
-51.1846
-51.1155
-51.0666
-51.0333
-51.0127
-51.0028
-52.5347
-52.7302
-52.6642
-52.4456
-52.1935
-51.9644
-51.7739
-51.6222
-51.5046
-51.4153
-51.3487
-51.3003
-51.2668
-51.2456
-51.2355
-51.7193
-52.1469
-52.3295
-52.3123
-52.201
-52.0623
-51.9268
-51.8076
-51.7087
-51.6298
-51.5688
-51.5233
-51.491
-51.4704
-51.4604
-50.5022
-51.7333
-52.1325
-52.2439
-52.2276
-52.1568
-52.0674
-51.9783
-51.8986
-51.8316
-51.7778
-51.7365
-51.7066
-51.6873
-51.6778
-52.0517
-51.8968
-52.1344
-52.264
-52.292
-52.2629
-52.2068
-52.1421
-52.0794
-52.0239
-51.9777
-51.9412
-51.9143
-51.8966
-51.8879
-50.1033
-51.7872
-52.2102
-52.3544
-52.3959
-52.3868
-52.3511
-52.3039
-52.2549