/*--------------------------------*- C++ -*----------------------------------*\
| =========                 |                                                 |
| \\      /  F ield         | OpenFOAM: The Open Source CFD Toolbox           |
|  \\    /   O peration     | Version:  5.x                                   |
|   \\  /    A nd           | Web:      www.OpenFOAM.org                      |
|    \\/     M anipulation  |                                                 |
\*---------------------------------------------------------------------------*/
FoamFile
{
    version     2.0;
    format      ascii;
    class       volScalarField;
    location    "2.3";
    object      gradTy;
}
// * * * * * * * * * * * * * * * * * * * * * * * * * * * * * * * * * * * * * //

dimensions      [0 -1 0 1 0 0 0];

internalField   nonuniform List<scalar> 
6300
(
32275.5
32226.5
32177.5
32128.7
32079.9
32031.3
31982.8
31934.6
31886.6
31838.8
31791.4
31744.3
31697.5
31651.2
31605.2
-0.0231294
-0.0694802
-0.116088
-0.163077
-0.210496
-0.258292
-0.306281
-0.354129
-0.401349
-0.44732
-0.491342
-0.532731
-0.570953
-0.605778
-0.637418
-0.0384455
-0.115507
-0.19305
-0.27131
-0.350402
-0.430266
-0.510615
-0.590899
-0.670282
-0.74767
-0.821791
-0.891355
-0.955301
-1.01309
-1.06501
-0.053595
-0.161053
-0.269285
-0.378696
-0.489518
-0.601732
-0.714989
-0.828538
-0.941174
-1.05125
-1.15676
-1.25556
-1.34577
-1.42624
-1.49714
-0.0684725
-0.205819
-0.344335
-0.484663
-0.62723
-0.772138
-0.919051
-1.06706
-1.2146
-1.35937
-1.49839
-1.62833
-1.74594
-1.84894
-1.93698
-0.0829414
-0.249402
-0.417553
-0.588365
-0.762567
-0.940503
-1.12197
-1.30602
-1.49075
-1.67316
-1.84906
-2.01335
-2.16065
-2.28654
-2.3893
-0.0968313
-0.29129
-0.488095
-0.68866
-0.894146
-1.10531
-1.32227
-1.54424
-1.76919
-1.99341
-2.2113
-2.41533
-2.59673
-2.74724
-2.86202
-0.109922
-0.330823
-0.55486
-0.784006
-1.02002
-1.26427
-1.5175
-1.77945
-2.04829
-2.31994
-2.58734
-2.83987
-3.06365
-3.24363
-3.36833
-0.121952
-0.367204
-0.616493
-0.872453
-1.1376
-1.41419
-1.70396
-2.0077
-2.3245
-2.65066
-2.97819
-3.29309
-3.5743
-3.79523
-3.93071
-0.132626
-0.399533
-0.671424
-0.951673
-1.24369
-1.55088
-1.8764
-2.22283
-2.59128
-2.97995
-3.38161
-3.77992
-4.14515
-4.43218
-4.58815
-0.141638
-0.426858
-0.717969
-1.01908
-1.33457
-1.66916
-2.02787
-2.41587
-2.83777
-3.29617
-3.78829
-4.29974
-4.79407
-5.20004
-5.40993
-0.148698
-0.448273
-0.754479
-1.07207
-1.40631
-1.76326
-2.15
-2.57493
-3.04771
-3.57858
-4.17554
-4.83656
-5.53115
-6.16372
-6.52573
-0.153574
-0.463037
-0.779573
-1.10835
-1.45529
-1.82749
-2.23388
-2.68606
-3.19949
-3.79483
-4.49859
-5.33963
-6.33001
-7.39763
-8.20163
-0.156128
-0.470705
-0.792389
-1.12643
-1.47894
-1.85747
-2.27191
-2.73588
-3.26928
-3.90254
-4.6842
-5.69312
-7.05134
-8.89484
-11.0368
-0.156354
-0.471243
-0.79281
-1.12598
-1.47651
-1.85149
-2.26032
-2.71621
-3.23913
-3.86173
-4.64237
-5.69708
-7.28716
-10.0934
-16.2025
31563.5
31525.8
31488.5
31451.5
31414.9
31378.6
31342.7
31307.2
31272
31237.3
31203
31169.2
31135.7
31102.8
31070.3
31038.4
31006.9
30975.9
30945.3
30915.3
30885.7
30856.7
30828
30799.9
30772.1
30744.8
30717.8
30691.3
30665.1
30639.2
30613.6
30588.3
30563.3
30538.5
30513.9
30489.5
30465.3
30441.3
30417.4
30393.6
30369.9
30346.3
30322.7
30299.2
30275.8
30252.3
30228.9
30205.4
30181.9
30158.3
30134.7
30111
30087.2
30063.3
30039.2
30015
29990.6
29966
29941.2
29916.1
29890.8
29865.2
29839.3
29813.1
29786.6
29759.8
29732.6
29705.2
29677.3
29649.1
29620.6
29591.6
29562.3
29532.7
29502.6
29472.2
29441.3
29410.1
29378.5
29346.6
29314.2
29281.4
29248.3
29214.8
29180.9
29146.6
29111.9
29076.9
29041.5
29005.8
-0.664173
-0.687566
-0.710877
-0.734975
-0.760603
-0.788235
-0.817961
-0.849439
-0.881919
-0.914341
-0.945483
-0.974123
-0.999185
-1.01982
-1.03545
-1.04572
-1.05043
-1.04948
-1.04285
-1.03052
-1.01259
-0.989208
-0.960695
-0.927481
-0.890115
-0.849221
-0.805461
-0.7595
-0.711992
-0.663568
-0.614822
-0.566299
-0.518459
-0.471662
-0.426146
-0.382046
-0.339409
-0.298239
-0.25852
-0.22023
-0.183328
-0.147718
-0.113212
-0.0795107
-0.0462005
-0.0127951
0.0212048
0.0562379
0.0926177
0.130489
0.16982
0.210415
0.251958
0.294045
0.336227
0.378028
0.418967
0.458579
0.496449
0.532238
0.56572
0.596788
0.625442
0.651751
0.67581
0.697695
0.717445
0.735073
0.750591
0.764053
0.775569
0.785309
0.793473
0.800243
0.80575
0.810058
0.813175
0.815093
0.815826
0.815435
0.814015
0.811651
0.80835
0.803984
0.798258
0.790713
0.780787
0.767887
0.751489
0.731213
-1.10837
-1.14602
-1.1835
-1.22248
-1.26444
-1.31035
-1.36043
-1.41409
-1.46991
-1.52589
-1.57973
-1.62919
-1.67231
-1.70764
-1.73427
-1.75169
-1.75969
-1.75819
-1.74712
-1.72646
-1.69629
-1.65684
-1.60862
-1.5524
-1.48912
-1.41992
-1.34592
-1.26828
-1.1881
-1.10644
-1.02433
-0.942728
-0.862428
-0.784049
-0.707982
-0.634404
-0.563342
-0.494753
-0.428595
-0.364855
-0.303512
-0.244467
-0.187445
-0.131938
-0.0772012
-0.0223248
0.0336385
0.0915238
0.15192
0.215086
0.280939
0.349099
0.418971
0.489832
0.56089
0.631322
0.700289
0.766972
0.83062
0.890628
0.946601
0.998381
1.04602
1.08972
1.1297
1.16611
1.199
1.22836
1.25413
1.27639
1.29531
1.31123
1.32455
1.33562
1.3447
1.35186
1.35707
1.36025
1.36138
1.36058
1.35809
1.35414
1.34886
1.34207
1.33326
1.32159
1.306
1.28536
1.25866
1.22518
-1.55507
-1.60466
-1.65387
-1.70562
-1.76251
-1.82636
-1.89768
-1.97553
-2.05757
-2.14042
-2.22022
-2.29328
-2.35654
-2.40791
-2.44625
-2.47114
-2.48257
-2.48058
-2.46512
-2.43603
-2.39326
-2.33704
-2.26803
-2.18739
-2.09663
-1.99745
-1.89159
-1.78068
-1.66628
-1.54992
-1.4331
-1.31725
-1.20362
-1.0931
-0.986234
-0.883147
-0.783729
-0.687789
-0.595221
-0.506063
-0.420434
-0.338357
-0.25956
-0.183328
-0.108483
-0.0335083
0.0432081
0.12309
0.20712
0.295693
0.388608
0.48518
0.584417
0.685182
0.786297
0.886558
0.984728
1.07955
1.16985
1.25464
1.33332
1.40573
1.47208
1.53285
1.58851
1.63936
1.68544
1.72656
1.76253
1.7933
1.81916
1.84068
1.85862
1.87365
1.88618
1.89626
1.90368
1.90812
1.90948
1.90795
1.90404
1.89837
1.89133
1.88286
1.87218
1.85793
1.83828
1.81135
1.77543
1.72931
-2.00617
-2.06385
-2.12061
-2.18134
-2.25059
-2.33161
-2.42554
-2.53096
-2.64408
-2.75933
-2.87042
-2.97147
-3.0579
-3.12695
-3.17758
-3.20997
-3.22475
-3.22236
-3.20271
-3.16528
-3.10958
-3.0356
-2.94415
-2.83691
-2.7162
-2.58458
-2.44447
-2.29803
-2.14723
-1.994
-1.84041
-1.68852
-1.54022
-1.39683
-1.25895
-1.12652
-0.999011
-0.87587
-0.756832
-0.642085
-0.532129
-0.42741
-0.327865
-0.232602
-0.139828
-0.0470761
0.0483465
0.148813
0.255911
0.370183
0.49115
0.617566
0.747802
0.880172
1.01308
1.14495
1.27413
1.39881
1.51714
1.6276
1.72923
1.82194
1.90633
1.98348
2.05439
2.11963
2.17915
2.23234
2.27854
2.31743
2.34938
2.37543
2.39701
2.4154
2.43131
2.44464
2.45468
2.46057
2.46185
2.45886
2.45265
2.44465
2.43599
2.42691
2.41637
2.40212
2.38116
2.35034
2.30693
2.24901
-2.46476
-2.5243
-2.5816
-2.64478
-2.7217
-2.81827
-2.93682
-3.07532
-3.22753
-3.38423
-3.53508
-3.67069
-3.78429
-3.87251
-3.93517
-3.97413
-3.99164
-3.98899
-3.96587
-3.92083
-3.85222
-3.75931
-3.64298
-3.5058
-3.35147
-3.1839
-3.00644
-2.82166
-2.63165
-2.43859
-2.24521
-2.05462
-1.86973
-1.69257
-1.52381
-1.36276
-1.20798
-1.05801
-0.912234
-0.771171
-0.636249
-0.508976
-0.389966
-0.278251
-0.171103
-0.064451
0.0462612
0.16503
0.294414
0.43508
0.585894
0.744503
0.908168
1.07445
1.24139
1.40727
1.57007
1.72724
1.87585
2.0133
2.13807
2.25017
2.35109
2.44314
2.52848
2.60823
2.68202
2.74827
2.80515
2.85163
2.88815
2.91669
2.94005
2.9608
2.98022
2.99783
3.01173
3.01971
3.02047
3.01448
3.00392
2.99195
2.98134
2.97315
2.96596
2.95605
2.93832
2.90755
2.85942
2.79099
-2.9364
-2.98795
-3.03416
-3.08844
-3.16456
-3.27333
-3.41947
-3.60001
-3.8046
-4.01765
-4.22178
-4.40171
-4.5473
-4.65494
-4.72697
-4.76925
-4.78766
-4.78514
-4.76068
-4.71038
-4.62991
-4.51678
-4.37187
-4.19942
-4.00583
-3.79747
-3.57897
-3.35283
-3.12042
-2.88364
-2.64598
-2.41244
-2.18806
-1.97618
-1.77747
-1.58991
-1.40991
-1.23402
-1.06073
-0.891291
-0.729219
-0.57849
-0.4414
-0.317149
-0.201478
-0.0874773
0.0327807
0.166177
0.316902
0.485608
0.669671
0.86443
1.06506
1.26806
1.47155
1.67433
1.87446
2.06832
2.25097
2.41762
2.5655
2.69487
2.809
2.91282
3.011
3.1058
3.19613
3.27808
3.34714
3.40055
3.43884
3.46583
3.48727
3.50852
3.53215
3.55677
3.57772
3.58963
3.58922
3.57705
3.55762
3.53768
3.52359
3.51831
3.51985
3.52159
3.51455
3.49008
3.44142
3.36434
-3.43117
-3.45927
-3.47508
-3.50065
-3.56041
-3.67462
-3.85261
-4.09013
-4.36955
-4.66402
-4.94342
-5.18227
-5.36503
-5.48876
-5.56171
-5.59881
-5.61391
-5.61297
-5.59276
-5.54347
-5.45468
-5.32009
-5.14047
-4.92356
-4.68148
-4.42567
-4.16251
-3.89304
-3.6155
-3.32993
-3.04083
-2.75707
-2.48834
-2.24078
-2.01502
-1.80611
-1.60585
-1.40621
-1.20359
-1.0007
-0.805739
-0.628236
-0.4742
-0.343532
-0.229277
-0.119334
0.000570743
0.14257
0.31371
0.514245
0.738287
0.976167
1.2188
1.46126
1.70302
1.94554
2.18818
2.42589
2.64947
2.84932
3.01993
3.16191
3.28212
3.39103
3.49879
3.61023
3.72269
3.82689
3.91208
3.9717
4.00622
4.02339
4.0352
4.05327
4.08312
4.12142
4.15719
4.17775
4.17535
4.15055
4.11247
4.07544
4.05357
4.05408
4.07386
4.10016
4.1163
4.10781
4.06472
3.98152
-3.96765
-3.94824
-3.90184
-3.86349
-3.87772
-3.9839
-4.19987
-4.51977
-4.9127
-5.332
-5.72331
-6.04352
-6.26766
-6.39562
-6.44796
-6.45997
-6.46313
-6.46847
-6.46663
-6.43331
-6.34534
-6.18813
-5.9627
-5.68384
-5.37684
-5.06436
-4.75507
-4.44478
-4.12205
-3.78122
-3.42787
-3.08
-2.75806
-2.47389
-2.22824
-2.00979
-1.80082
-1.58264
-1.3468
-1.09863
-0.857084
-0.644156
-0.473321
-0.346251
-0.250838
-0.165515
-0.0634488
0.0769963
0.268174
0.509005
0.786943
1.08103
1.37274
1.65546
1.93337
2.21654
2.50898
2.80378
3.08208
3.32311
3.51554
3.66023
3.77146
3.87087
3.9812
4.11315
4.26106
4.40301
4.51375
4.57892
4.59853
4.58862
4.57402
4.58102
4.62184
4.68964
4.75852
4.79886
4.79371
4.74309
4.6658
4.5913
4.5513
4.56206
4.61845
4.69334
4.75348
4.77534
4.7457
4.6599
-4.58027
-4.47589
-4.31675
-4.15031
-4.06223
-4.13462
-4.39696
-4.84374
-5.41734
-6.03976
-6.60509
-7.04258
-7.30826
-7.41086
-7.39177
-7.33337
-7.30872
-7.3338
-7.38536
-7.40141
-7.33521
-7.15399
-6.86142
-6.48426
-6.07967
-5.69812
-5.34868
-5.01413
-4.65432
-4.25025
-3.80676
-3.36533
-2.97318
-2.65138
-2.40211
-2.1997
-2.00896
-1.78443
-1.50775
-1.18704
-0.867296
-0.599582
-0.409586
-0.303594
-0.258111
-0.236095
-0.183068
-0.0620224
0.150692
0.449831
0.81179
1.18874
1.53898
1.8559
2.15545
2.47346
2.8256
3.20464
3.56751
3.86599
4.07899
4.2058
4.27686
4.33398
4.43147
4.59201
4.80697
5.02296
5.17994
5.25059
5.23221
5.15943
5.08059
5.0589
5.12056
5.25511
5.39982
5.48429
5.47641
5.37289
5.214
5.05639
4.97487
5.00328
5.13536
5.30678
5.44479
5.51608
5.50666
5.424
-5.33255
-5.08205
-4.74184
-4.32389
-4.01528
-4.0113
-4.3279
-4.98443
-5.85099
-6.82902
-7.67024
-8.28832
-8.58301
-8.60062
-8.39147
-8.15749
-8.08199
-8.16035
-8.35454
-8.48729
-8.49008
-8.27959
-7.88132
-7.32362
-6.74877
-6.2851
-5.92036
-5.6194
-5.24989
-4.77562
-4.18229
-3.57936
-3.08666
-2.72414
-2.50832
-2.3726
-2.26564
-2.06126
-1.73204
-1.27407
-0.802651
-0.443218
-0.22509
-0.174085
-0.231934
-0.351736
-0.4011
-0.333572
-0.0918243
0.299542
0.814335
1.3341
1.75236
2.08041
2.34997
2.68018
3.10244
3.62769
4.1445
4.53075
4.76529
4.83035
4.80094
4.73759
4.78949
4.99106
5.34991
5.72632
5.96889
6.04887
5.94259
5.73735
5.5032
5.41509
5.51265
5.80429
6.12617
6.30107
6.29518
6.08081
5.75875
5.41033
5.23857
5.2937
5.59408
5.96688
6.23071
6.3717
6.37178
6.30937
-6.34389
-5.81696
-5.27852
-4.33982
-3.5296
-3.42649
-3.76955
-4.82287
-6.12436
-7.81548
-9.05693
-9.99997
-10.257
-10.1171
-9.42716
-8.75361
-8.63391
-8.8203
-9.41242
-9.76052
-9.9523
-9.67577
-9.13098
-8.18783
-7.25788
-6.72974
-6.40032
-6.32347
-5.99642
-5.47255
-4.57168
-3.63466
-3.01269
-2.58563
-2.49917
-2.50409
-2.66256
-2.51782
-2.14166
-1.38034
-0.576583
-0.0831684
0.200282
0.112376
-0.116345
-0.568608
-0.787233
-0.855747
-0.549484
-0.0281207
0.81014
1.62609
2.09615
2.38966
2.45766
2.75488
3.23149
4.06349
4.91013
5.41466
5.6963
5.59163
5.3746
4.97591
4.9327
5.16435
5.86832
6.62321
6.99278
7.11622
6.79629
6.35773
5.71639
5.50478
5.62615
6.3108
7.06508
7.37907
7.41507
6.94469
6.34239
5.51081
5.17644
5.23188
5.94937
6.78476
7.19437
7.43105
7.32774
7.37229
-7.87574
-6.56826
-6.39149
-4.17055
-2.02544
-2.19893
-2.18817
-4.30378
-5.83649
-9.44928
-10.8731
-12.6994
-12.5022
-12.4256
-10.439
-8.55201
-8.74488
-8.89585
-10.8215
-11.2587
-12.0887
-11.4581
-10.9541
-9.03287
-7.18824
-6.88807
-6.51643
-7.38767
-7.02621
-6.71219
-5.01298
-3.23614
-2.65793
-1.95651
-2.3583
-2.41433
-3.496
-3.30751
-3.10582
-1.54764
0.0964497
0.579289
1.16047
0.60168
0.321177
-1.1219
-1.38954
-1.91763
-1.31695
-0.812172
0.838008
2.41609
2.69412
3.02358
2.23525
2.57118
2.84872
4.4781
6.1683
6.61943
7.18351
6.5146
6.20972
4.70222
4.68
4.65736
6.31323
8.07484
8.37093
8.82187
7.8207
7.26995
5.31061
5.11483
4.92839
6.71688
8.63787
8.85725
9.264
7.99842
7.2561
4.8952
4.55292
4.21663
6.13484
8.21571
8.40703
8.97999
8.07077
8.74685
-10.8638
-5.69124
-10.4478
-3.89184
2.81788
-1.23623
2.45569
-4.62351
-2.55274
-14.2346
-12.1093
-18.312
-14.5731
-17.4837
-11.3071
-5.35478
-8.91562
-6.41526
-14.3735
-12.1906
-16.328
-13.0574
-14.8177
-9.76708
-4.8941
-7.14883
-4.84234
-10.2265
-7.98732
-9.9461
-5.56572
-1.11122
-2.48024
0.261558
-2.71504
-0.847401
-6.15828
-4.11609
-6.02321
-1.8386
2.44175
1.10016
3.76216
0.690193
2.43266
-3.36801
-1.61713
-4.60524
-1.94673
-3.24604
0.969196
5.07764
3.2175
5.26649
0.393258
2.47085
0.51859
4.80438
9.20995
7.66072
10.4454
6.91247
8.77569
2.28874
4.42686
1.73228
6.60477
11.6357
9.52497
12.6174
8.19534
10.2094
2.36411
4.71022
1.38554
6.93096
12.6598
10.0644
13.5199
8.29747
10.4994
1.37164
3.91969
-0.0461889
6.08506
12.3666
9.06913
12.6623
6.52995
11.1896
-21.0736
9.48408
-30.7937
-3.83424
23.1613
-11.4277
22.6101
-18.1191
20.5349
-38.9021
-1.3531
-38.2403
-7.06874
-35.6275
-11.8519
11.5416
-17.8144
11.1258
-32.5285
-4.0212
-31.2349
-7.41218
-28.4891
-10.2453
7.66416
-13.9776
7.90648
-24.0429
-2.90324
-22.3084
-6.22504
9.39979
-8.22193
10.7144
-10.0473
11.0568
-19.4089
0.762401
-17.7127
-2.26728
12.8829
-4.14394
14.621
-6.15395
15.4064
-16.4884
4.97944
-15.4241
3.12272
-13.6209
1.25422
16.3341
-1.88817
17.4775
-11.4579
8.17352
-10.7944
4.95822
20.8266
2.46129
22.8047
-0.460068
23.366
-12.5449
11.1328
-12.0894
6.66815
25.4806
3.18648
27.2338
-0.697955
27.3461
-15.2579
12.4716
-14.9302
6.88099
28.6685
2.55817
30.2721
-2.0945
30.0574
-18.9649
12.6667
-18.8486
5.81904
30.3112
-0.191145
30.3494
-10.5511
20.4265
28966.1
28922.3
28878.1
28833.4
28788.3
28742.9
28697.2
28651.1
28604.8
28558.3
28511.6
28464.7
28417.7
28370.7
28323.6
0.704434
0.66937
0.628919
0.583894
0.535322
0.484293
0.431836
0.378824
0.325929
0.273612
0.222129
0.171562
0.121849
0.0728173
0.0242228
1.1805
1.12153
1.05321
0.977042
0.894893
0.808718
0.720328
0.631232
0.542569
0.455091
0.369198
0.284989
0.20232
0.120872
0.0402022
1.6667
1.58298
1.48529
1.37611
1.25843
1.13529
1.00946
0.883147
0.757971
0.634945
0.514555
0.396855
0.281559
0.168142
0.0559124
2.16833
2.05837
1.92886
1.78367
1.62739
1.46453
1.29902
1.13387
0.971172
0.812119
0.65719
0.506292
0.358905
0.214215
0.0712139
2.69195
2.55336
2.38812
2.20234
2.00292
1.7964
1.58816
1.38209
1.18066
0.985108
0.795749
0.612184
0.433533
0.258587
0.0859373
3.24629
3.07514
2.86806
2.63474
2.38564
2.13005
1.87513
1.62563
1.38419
1.15184
0.928454
0.71312
0.504426
0.300647
0.0998789
3.84321
3.63305
3.3744
3.08307
2.77499
2.46319
2.15679
1.86113
1.5786
1.30955
1.05305
0.807365
0.570367
0.339676
0.112801
4.49932
4.23936
3.9134
3.54813
3.16812
2.79109
2.42786
2.08358
1.75954
1.45469
1.16675
0.892876
0.629962
0.374864
0.124437
5.23949
4.91107
4.49122
4.02751
3.55791
3.10513
2.68009
2.28592
1.92134
1.5829
1.26636
0.967373
0.681704
0.405354
0.134511
6.10587
5.67339
5.11221
4.5122
3.93012
3.39099
2.90133
2.45872
2.05704
1.6892
1.3484
1.02851
0.724091
0.430314
0.142757
7.1834
6.56491
5.7724
4.97938
4.2591
3.62691
3.07531
2.59055
2.15889
1.76845
1.4095
1.07412
0.755805
0.449034
0.148949
8.67347
7.63048
6.43284
5.37435
4.50013
3.78211
3.18231
2.66922
2.21949
1.8162
1.44699
1.10264
0.775935
0.461046
0.152944
11.1253
8.85012
6.95333
5.58469
4.58473
3.81891
3.2025
2.68452
2.23363
1.82981
1.45959
1.11344
0.784216
0.466243
0.154715
15.7821
9.69106
6.94586
5.42622
4.43485
3.70605
3.1242
2.6327
2.2007
1.80979
1.44807
1.10727
0.781203
0.464968
0.154377
-0.154712
-0.466074
-0.783358
-1.11088
-1.45356
-1.81735
-2.20987
-2.64146
-3.1272
-3.69084
-4.3736
-5.25555
-6.51449
-8.6067
-12.8711
-0.151719
-0.456797
-0.766855
-1.08543
-1.41638
-1.76412
-2.13377
-2.53152
-2.9648
-3.4422
-3.97165
-4.55046
-5.11869
-5.34456
-3.60964
-0.147582
-0.444042
-0.744409
-1.05133
-1.3675
-1.69561
-2.03813
-2.39687
-2.77167
-3.15728
-3.5353
-3.8526
-3.96057
-3.44369
-1.17263
-0.142536
-0.428553
-0.717377
-1.01077
-1.3103
-1.61704
-1.93118
-2.25101
-2.57095
-2.87747
-3.14099
-3.30011
-3.23624
-2.76084
-1.80286
-0.136828
-0.411094
-0.687135
-0.96592
-1.24802
-1.53329
-1.82025
-2.10504
-2.37943
-2.62736
-2.81901
-2.90253
-2.79738
-2.41305
-1.79771
-0.130689
-0.392383
-0.654955
-0.918716
-1.1835
-1.44832
-1.71079
-1.96625
-2.20622
-2.41613
-2.57194
-2.63605
-2.55211
-2.22559
-1.38803
-0.124322
-0.373042
-0.621913
-0.870753
-1.1189
-1.36492
-1.60617
-1.83817
-2.05382
-2.24231
-2.38832
-2.47238
-2.4751
-2.39288
-2.32444
-0.117894
-0.353575
-0.588859
-0.823223
-1.05572
-1.28478
-1.50791
-1.72143
-1.92023
-2.09786
-2.24752
-2.36515
-2.4569
-2.55046
-2.69127
-0.111534
-0.334362
-0.556409
-0.776937
-0.99488
-1.2087
-1.41627
-1.61485
-1.80129
-1.97275
-2.12877
-2.2758
-2.43729
-2.67506
-3.14328
-0.105333
-0.315673
-0.52498
-0.732402
-0.936843
-1.13689
-1.33081
-1.51666
-1.69268
-1.85828
-2.01612
-2.17628
-2.36457
-2.63944
-3.13901
-0.0993539
-0.297681
-0.494829
-0.689893
-0.881799
-1.06928
-1.2509
-1.42523
-1.59125
-1.74912
-1.90172
-2.05711
-2.23158
-2.44762
-2.6943
-0.0936322
-0.280489
-0.466096
-0.649536
-0.829778
-1.00567
-1.17597
-1.33951
-1.49539
-1.64351
-1.78525
-1.92459
-2.06956
-2.23434
-2.45173
-0.0881874
-0.264146
-0.438838
-0.611359
-0.780727
-0.945879
-1.10569
-1.25903
-1.40485
-1.54223
-1.67032
-1.78806
-1.89364
-1.98438
-2.05407
-0.0830255
-0.248665
-0.413057
-0.57533
-0.734555
-0.889741
-1.03983
-1.18371
-1.32009
-1.44729
-1.56246
-1.65987
-1.72788
-1.74889
-1.75152
-0.078143
-0.234032
-0.38872
-0.541379
-0.691139
-0.837085
-0.978238
-1.11352
-1.24162
-1.36059
-1.4668
-1.55202
-1.59459
-1.52603
-1.07734
-0.0735304
-0.220215
-0.365763
-0.509401
-0.650325
-0.787702
-0.920661
-1.04826
-1.16942
-1.28266
-1.38558
-1.47369
-1.53834
-1.56703
-1.5878
-0.0691734
-0.207168
-0.344105
-0.479267
-0.611925
-0.741334
-0.866746
-0.987419
-1.10264
-1.21178
-1.31452
-1.41157
-1.50693
-1.61343
-1.7606
-0.0650547
-0.19484
-0.323652
-0.450835
-0.575732
-0.697687
-0.816066
-0.930303
-1.04001
-1.14525
-1.24728
-1.35054
-1.46763
-1.63143
-1.92351
-0.0611554
-0.183171
-0.304301
-0.423953
-0.541537
-0.656471
-0.768206
-0.876275
-0.980411
-1.08085
-1.17908
-1.2798
-1.39577
-1.5602
-1.86341
-0.0574556
-0.172101
-0.285949
-0.39847
-0.509135
-0.617423
-0.722836
-0.824918
-0.923314
-1.01789
-1.10903
-1.19835
-1.29013
-1.39246
-1.50455
-0.0539348
-0.161568
-0.268493
-0.374239
-0.478337
-0.580321
-0.679722
-0.776061
-0.868799
-0.957222
-1.04013
-1.11512
-1.17702
-1.21782
-1.26033
-0.0505728
-0.151511
-0.25183
-0.351117
-0.448965
-0.544961
-0.638682
-0.729646
-0.817212
-0.90029
-0.976637
-1.0409
-1.07844
-1.04188
-0.743237
-0.0473493
-0.14187
-0.235857
-0.328961
-0.420834
-0.511133
-0.599502
-0.685535
-0.76867
-0.84794
-0.921426
-0.985145
-1.0312
-1.04783
-1.05095
-0.0442442
-0.132582
-0.220473
-0.307624
-0.393754
-0.478597
-0.561893
-0.643381
-0.722745
-0.799516
-0.87289
-0.941581
-1.00428
-1.06306
-1.13779
-0.0412384
-0.123592
-0.205577
-0.286962
-0.367528
-0.447087
-0.525491
-0.602649
-0.678558
-0.753361
-0.827495
-0.902096
-0.979964
-1.06711
-1.17405
-0.0383134
-0.114841
-0.191075
-0.266834
-0.34196
-0.416334
-0.489905
-0.562732
-0.635079
-0.707588
-0.781665
-0.860251
-0.949091
-1.05728
-1.18995
-0.0354525
-0.10628
-0.17688
-0.247114
-0.316874
-0.386094
-0.454786
-0.523099
-0.591428
-0.660646
-0.732603
-0.811195
-0.904667
-1.03033
-1.22546
-0.0326407
-0.0978633
-0.162914
-0.227693
-0.292124
-0.356175
-0.419883
-0.483403
-0.547098
-0.611725
-0.678835
-0.751722
-0.837774
-0.955026
-1.15622
-0.0298651
-0.0895524
-0.149115
-0.208481
-0.2676
-0.326452
-0.385064
-0.443534
-0.502061
-0.561
-0.620961
-0.683028
-0.749101
-0.821309
-0.890275
-0.0271148
-0.0813149
-0.13543
-0.189412
-0.243225
-0.296854
-0.350299
-0.403576
-0.456679
-0.509486
-0.561532
-0.611477
-0.656062
-0.689736
-0.723913
-0.0243804
-0.0731235
-0.121816
-0.17043
-0.218943
-0.267342
-0.315608
-0.363692
-0.411444
-0.458423
-0.503471
-0.543584
-0.570495
-0.557724
-0.401936
-0.0216539
-0.0649546
-0.108236
-0.151489
-0.194706
-0.237883
-0.281
-0.323995
-0.36669
-0.408627
-0.44875
-0.484799
-0.512382
-0.524947
-0.52996
-0.018928
-0.0567868
-0.0946558
-0.132544
-0.170464
-0.208427
-0.246436
-0.284464
-0.322411
-0.360019
-0.396768
-0.431836
-0.464602
-0.497338
-0.54699
-0.016196
-0.0486001
-0.0810423
-0.113551
-0.146158
-0.178901
-0.211819
-0.244949
-0.278317
-0.311939
-0.345868
-0.380408
-0.41675
-0.45789
-0.50767
-0.0134515
-0.0403753
-0.0673634
-0.0944626
-0.121726
-0.149218
-0.177017
-0.205227
-0.233999
-0.263582
-0.294456
-0.327662
-0.365477
-0.412352
-0.476412
-0.0106887
-0.0320947
-0.0535888
-0.0752345
-0.0971044
-0.119286
-0.141891
-0.165075
-0.189073
-0.214267
-0.241347
-0.271648
-0.307825
-0.35479
-0.419711
-0.00790223
-0.0237422
-0.0396909
-0.0558261
-0.0722358
-0.0890243
-0.106325
-0.124319
-0.14327
-0.163583
-0.185927
-0.21149
-0.242596
-0.28467
-0.356809
-0.00508747
-0.0153037
-0.025646
-0.0362034
-0.0470746
-0.0583738
-0.0702414
-0.0828594
-0.0964747
-0.111429
-0.1282
-0.147424
-0.169666
-0.193584
-0.205355
-0.00224049
-0.0067676
-0.0114348
-0.0163399
-0.021588
-0.0272965
-0.033602
-0.04067
-0.0487045
-0.0579531
-0.0687002
-0.0812071
-0.0954928
-0.110856
-0.12854
0.000641929
0.00187568
0.00295774
0.00378404
0.00424568
0.00422646
0.00359983
0.00222604
-4.77478e-05
-0.00337927
-0.00791083
-0.0137066
-0.0204944
-0.0264491
-0.0238008
0.00356246
0.0106338
0.0175437
0.0241827
0.0304396
0.036201
0.0413522
0.0457809
0.0493848
0.0520838
0.053822
0.0545269
0.0540003
0.0520444
0.0497641
0.00652335
0.0195134
0.0323329
0.0448675
0.0570033
0.0686281
0.0796367
0.0899407
0.0994847
0.108268
0.116337
0.123659
0.129559
0.130818
0.11269
0.00952666
0.0285203
0.0473346
0.0658496
0.0839466
0.101511
0.11844
0.134659
0.15015
0.164998
0.179436
0.193824
0.208407
0.22312
0.241372
0.0125743
0.0376605
0.0625582
0.0871414
0.111284
0.134862
0.157765
0.179913
0.201296
0.222059
0.242632
0.263904
0.28723
0.313031
0.329067
0.0156683
0.0469396
0.0780141
0.108758
0.139036
0.168709
0.197643
0.225726
0.252906
0.279298
0.3054
0.332606
0.364396
0.409789
0.496035
0.0188103
0.0563634
0.0937124
0.130717
0.16723
0.203093
0.23814
0.272195
0.305098
0.336779
0.367456
0.398169
0.432177
0.478242
0.555189
0.0220017
0.0659364
0.109663
0.153035
0.195896
0.23807
0.279352
0.319491
0.358172
0.395003
0.429537
0.461489
0.491646
0.52531
0.582227
0.0252435
0.0756616
0.125871
0.175724
0.225059
0.273689
0.321383
0.367827
0.412564
0.454862
0.493463
0.526094
0.548737
0.556287
0.559162
0.0285354
0.085539
0.142338
0.198788
0.254731
0.309981
0.364304
0.417374
0.468681
0.517331
0.561584
0.597669
0.616364
0.59056
0.416421
0.0318764
0.0955651
0.159059
0.222221
0.284903
0.346938
0.408118
0.46817
0.526672
0.582894
0.635423
0.681354
0.714947
0.727887
0.731143
0.0352643
0.105733
0.17602
0.246001
0.315544
0.384507
0.452738
0.520064
0.586273
0.651061
0.71389
0.773636
0.827922
0.871978
0.892253
0.038696
0.116033
0.193205
0.2701
0.346603
0.422605
0.498007
0.572755
0.646886
0.720625
0.794542
0.869744
0.948051
1.03263
1.13534
0.0421676
0.126454
0.210593
0.294484
0.378028
0.461137
0.543751
0.625896
0.707794
0.790098
0.874348
0.963729
1.06387
1.18075
1.29594
0.0456752
0.136983
0.228161
0.319121
0.409772
0.50003
0.589839
0.679228
0.768443
0.858251
0.950629
1.05028
1.16811
1.33007
1.60581
0.0492143
0.147607
0.24589
0.343984
0.441803
0.539251
0.636238
0.732701
0.828701
0.92465
1.0219
1.12424
1.24174
1.40044
1.66494
0.0527801
0.158312
0.263758
0.36905
0.474104
0.57881
0.683016
0.786514
0.889019
0.990175
1.08967
1.1877
1.2868
1.39738
1.54763
0.0563668
0.169083
0.281741
0.394292
0.506661
0.61873
0.730303
0.841034
0.950293
1.05689
1.15848
1.25044
1.32392
1.36681
1.40419
0.0599673
0.179897
0.299807
0.419671
0.539438
0.659009
0.778188
0.896591
1.01344
1.1271
1.23402
1.32603
1.38232
1.34009
0.957002
0.0635729
0.190729
0.31791
0.445126
0.572363
0.699572
0.826626
0.953244
1.07881
1.20201
1.31995
1.42645
1.50918
1.55011
1.57297
0.0671731
0.201546
0.335997
0.470574
0.605318
0.740253
0.875379
1.01064
1.14586
1.2806
1.41384
1.54341
1.66511
1.77271
1.85483
0.0707559
0.212312
0.354001
0.495915
0.638149
0.780813
0.92405
1.06807
1.21324
1.36024
1.51033
1.66583
1.83086
2.01302
2.23521
0.074309
0.222989
0.371855
0.52104
0.67069
0.820986
0.972185
1.12472
1.27937
1.43775
1.60308
1.78167
1.98473
2.22557
2.47973
0.0778203
0.233539
0.389493
0.545848
0.702789
0.860539
1.01941
1.17989
1.34293
1.51046
1.68663
1.88053
2.11241
2.42889
2.95018
0.0812782
0.243927
0.406855
0.570255
0.734334
0.899324
1.06551
1.2333
1.40338
1.57719
1.75788
1.95304
2.18135
2.48999
2.99968
0.0846726
0.254123
0.423892
0.594195
0.765251
0.937284
1.11051
1.28511
1.46127
1.63914
1.81911
2.00254
2.19454
2.41151
2.68892
0.0879943
0.264101
0.440561
0.617613
0.795495
0.974422
1.15455
1.33585
1.51796
1.69965
1.87794
2.04611
2.19038
2.29108
2.39092
0.0912348
0.273833
0.456819
0.640459
0.825016
1.01073
1.19777
1.38605
1.57494
1.76253
1.94382
2.10627
2.21651
2.17126
1.56846
0.0943861
0.283296
0.472626
0.662668
0.853733
1.04613
1.24012
1.43581
1.63284
1.82979
2.02278
2.2027
2.35063
2.43863
2.50583
0.0974416
0.292469
0.487937
0.684167
0.881524
1.08042
1.2813
1.48464
1.6908
1.8998
2.11082
2.32133
2.52638
2.72046
2.90153
0.100397
0.301335
0.502717
0.704884
0.908246
1.11332
1.32078
1.53151
1.74679
1.96842
2.19921
2.44375
2.70976
3.01132
3.38422
0.103252
0.309891
0.516951
0.724769
0.933777
1.14456
1.35796
1.57523
1.79835
2.03066
2.27807
2.55125
2.86844
3.25265
3.68085
0.106013
0.318154
0.530655
0.743823
0.95807
1.17399
1.39246
1.61488
1.84352
2.0824
2.33902
2.62819
2.98058
3.46341
4.2418
0.108694
0.326163
0.543894
0.762124
0.981196
1.20163
1.42421
1.65019
1.88157
2.12182
2.37736
2.66121
3.00213
3.46891
4.23974
0.111318
0.333989
0.556782
0.779833
1.00337
1.22777
1.4536
1.68173
1.91345
2.1506
2.39603
2.6546
2.93624
3.26327
3.66657
0.113916
0.341726
0.569484
0.797197
1.02494
1.2529
1.48137
1.71078
1.94153
2.17362
2.40557
2.63193
2.83882
3.00463
3.18976
0.116528
0.349497
0.582211
0.814529
1.04635
1.27766
1.50848
1.73887
1.96867
2.19672
2.41895
2.62276
2.76991
2.73256
1.99556
0.119199
0.357439
0.595206
0.832193
1.06812
1.30273
1.53587
1.76737
1.99699
2.22385
2.44511
2.6529
2.82909
2.94632
3.06113
0.121979
0.365705
0.608733
0.850584
1.09077
1.32883
1.56436
1.79715
2.0272
2.25484
2.48059
2.70496
2.92918
3.16174
3.44061
0.124916
0.374449
0.623068
0.870117
1.11489
1.35665
1.59475
1.8288
2.05906
2.28711
2.51699
2.7571
3.02342
3.34497
3.77495
0.128059
0.383821
0.638482
0.891215
1.14107
1.387
1.62793
1.86305
2.09242
2.31807
2.54624
2.79098
3.07926
3.45285
3.93574
0.131447
0.393949
0.655222
0.914291
1.16996
1.42079
1.66511
1.90128
2.12831
2.34724
2.56395
2.79458
3.0758
3.48476
4.18304
0.135106
0.404921
0.673477
0.939705
1.2022
1.45907
1.70791
1.94582
2.1698
2.37792
2.57193
2.76298
2.98359
3.31567
3.97871
0.139037
0.416758
0.693331
0.967691
1.2383
1.5029
1.75828
1.99999
2.22226
2.41833
2.58191
2.71081
2.81391
2.91667
3.01447
0.14321
0.429381
0.714703
0.998257
1.27854
1.5531
1.8181
2.06762
2.29286
2.48127
2.61592
2.6765
2.64438
2.52105
2.41797
0.147551
0.44258
0.737283
1.03107
1.32271
1.6099
1.88862
2.15206
2.38901
2.58147
2.7013
2.7065
2.53812
2.11128
1.22121
0.15194
0.455993
0.760476
1.06534
1.36993
1.67256
1.96972
2.25485
2.51601
2.73206
2.86622
2.85701
2.61124
2.02314
1.10243
0.156201
0.469093
0.783383
1.09976
1.41848
1.73896
2.05915
2.37425
2.67431
2.93947
3.13062
3.17172
2.92201
2.16587
0.836687
0.160119
0.481205
0.804812
1.13253
1.46576
1.80552
2.15206
2.50406
2.8568
3.19823
3.49915
3.68829
3.58434
2.70646
-0.228803
0.163441
0.491549
0.82336
1.16143
1.50846
1.86733
2.24116
2.63331
3.04713
3.48506
3.94521
4.4083
4.78396
4.67572
2.29357
0.165906
0.499302
0.837529
1.18407
1.54289
1.91869
2.3175
2.74749
3.22071
3.75643
4.38913
5.1888
6.31935
8.22427
12.2912
12.0068
7.83908
5.94098
4.8408
4.07586
3.47787
2.9757
2.53469
2.13561
1.76662
1.41971
1.08904
0.770061
0.458986
0.152495
1.62614
4.17486
4.35917
4.03562
3.61583
3.19456
2.79268
2.41284
2.05302
1.71021
1.3813
1.06338
0.753778
0.449981
0.149616
-0.978611
2.15246
3.12993
3.29716
3.15671
2.89769
2.59431
2.27703
1.95859
1.6441
1.33521
1.03192
0.733438
0.438575
0.145942
0.170592
1.62559
2.46322
2.77227
2.77983
2.63154
2.40554
2.14199
1.86137
1.57406
1.28518
0.997079
0.710559
0.425605
0.14174
0.546271
1.52737
2.16348
2.45663
2.51107
2.41927
2.24279
2.01877
1.76877
1.50507
1.23459
0.961105
0.686568
0.411863
0.137265
0.905455
1.66865
2.10178
2.30668
2.34379
2.26575
2.11301
1.91356
1.68563
1.44076
1.18605
0.92583
0.662668
0.398031
0.132738
1.89832
2.03902
2.19848
2.27317
2.25639
2.16403
2.01563
1.82808
1.61423
1.38323
1.14129
0.89257
0.63977
0.384641
0.128333
2.41863
2.39626
2.35397
2.30311
2.22139
2.10118
1.94537
1.76081
1.55471
1.33325
1.10121
0.862113
0.618467
0.372056
0.124172
3.3023
2.76722
2.51531
2.3544
2.21305
2.06299
1.89504
1.70846
1.50583
1.29059
1.06601
0.834786
0.599063
0.360482
0.120328
3.51156
2.94143
2.61337
2.39206
2.21069
2.03718
1.85759
1.6672
1.46565
1.25439
1.03538
0.81056
0.581627
0.34999
0.116827
3.36137
2.94744
2.63724
2.40191
2.2028
2.01554
1.82761
1.63367
1.4322
1.22353
1.00875
0.78917
0.566054
0.340546
0.113665
3.25135
2.88134
2.60904
2.38654
2.18663
1.99431
1.80176
1.60532
1.40371
1.19689