/*--------------------------------*- C++ -*----------------------------------*\
| =========                 |                                                 |
| \\      /  F ield         | OpenFOAM: The Open Source CFD Toolbox           |
|  \\    /   O peration     | Version:  5.x                                   |
|   \\  /    A nd           | Web:      www.OpenFOAM.org                      |
|    \\/     M anipulation  |                                                 |
\*---------------------------------------------------------------------------*/
FoamFile
{
    version     2.0;
    format      ascii;
    class       volScalarField;
    location    "2.5";
    object      gradTx;
}
// * * * * * * * * * * * * * * * * * * * * * * * * * * * * * * * * * * * * * //

dimensions      [0 -1 0 1 0 0 0];

internalField   nonuniform List<scalar> 
6300
(
-48.5532
-48.5243
-48.4663
-48.3791
-48.2624
-48.116
-47.9398
-47.7339
-47.4985
-47.2343
-46.9424
-46.6243
-46.2817
-45.9168
-45.5316
-48.582
-48.5532
-48.4954
-48.4084
-48.2919
-48.1457
-47.9694
-47.7632
-47.5271
-47.2619
-46.9685
-46.6485
-46.304
-45.9371
-45.5502
-48.6394
-48.6108
-48.5534
-48.4669
-48.351
-48.2051
-48.0289
-47.8221
-47.5848
-47.3175
-47.0211
-46.6973
-46.3484
-45.9772
-45.5868
-48.7253
-48.697
-48.6404
-48.5548
-48.4398
-48.2947
-48.1188
-47.9114
-47.6724
-47.4019
-47.1008
-46.7709
-46.415
-46.0366
-45.64
-48.8392
-48.8115
-48.756
-48.6719
-48.5586
-48.4149
-48.2398
-48.0323
-47.7914
-47.5168
-47.2093
-46.8705
-46.5039
-46.1142
-45.7075
-48.9805
-48.9538
-48.8999
-48.8182
-48.7075
-48.5664
-48.3932
-48.1862
-47.9437
-47.6646
-47.3488
-46.9978
-46.6156
-46.2087
-45.7859
-49.1484
-49.1229
-49.0715
-48.9932
-48.8866
-48.7497
-48.5803
-48.3755
-48.1326
-47.849
-47.5233
-47.1562
-46.7519
-46.319
-45.8704
-49.3415
-49.3178
-49.2697
-49.1963
-49.0957
-48.9655
-48.8025
-48.6028
-48.3619
-48.0752
-47.739
-47.3517
-46.9168
-46.4447
-45.9547
-49.5581
-49.5367
-49.4932
-49.4264
-49.3342
-49.2138
-49.0612
-48.871
-48.6368
-48.3509
-48.0055
-47.5948
-47.1186
-46.5882
-46.031
-49.796
-49.7775
-49.7398
-49.6816
-49.6008
-49.4942
-49.3572
-49.1831
-48.9633
-48.686
-48.3373
-47.9031
-47.3746
-46.7585
-46.0914
-50.0522
-50.0372
-50.0065
-49.9591
-49.8929
-49.8048
-49.6899
-49.5409
-49.3469
-49.0922
-48.7544
-48.3057
-47.7179
-46.9799
-46.1314
-50.3232
-50.3122
-50.2899
-50.2552
-50.2068
-50.142
-50.0565
-49.9434
-49.7913
-49.5812
-49.2824
-48.8474
-48.2114
-47.3116
-46.1594
-50.6049
-50.5984
-50.5852
-50.5649
-50.5368
-50.4995
-50.4504
-50.3848
-50.2934
-50.1588
-49.9464
-49.5899
-48.9685
-47.8956
-46.2217
-50.8929
-50.891
-50.8873
-50.8821
-50.8757
-50.8686
-50.8607
-50.8516
-50.8388
-50.814
-50.7543
-50.5972
-50.1769
-49.0801
-46.5054
-51.1824
-51.185
-51.1907
-51.2002
-51.2152
-51.238
-51.272
-51.3221
-51.3959
-51.504
-51.6593
-51.8675
-52.0616
-51.7418
-48.0026
-45.1626
-44.8137
-44.4526
-44.0791
-43.6925
-43.2917
-42.8757
-42.4434
-41.994
-41.5271
-41.0432
-40.5432
-40.0286
-39.5016
-38.9645
-38.4202
-37.8717
-37.3219
-36.7739
-36.2308
-35.6957
-35.1716
-34.6614
-34.1676
-33.6927
-33.2388
-32.8075
-32.4002
-32.0178
-31.661
-31.33
-31.0248
-30.7451
-30.4902
-30.2594
-30.052
-29.867
-29.7035
-29.5606
-29.4374
-29.3331
-29.2468
-29.1779
-29.1257
-29.09
-29.0706
-29.0677
-29.0817
-29.1134
-29.1635
-29.2328
-29.3222
-29.4323
-29.5635
-29.7161
-29.8901
-30.0851
-30.3007
-30.536
-30.7901
-31.0618
-31.35
-31.6533
-31.9706
-32.3006
-32.6423
-32.9945
-33.3561
-33.7263
-34.1038
-34.4879
-34.8775
-35.272
-35.6706
-36.0728
-36.478
-36.8856
-37.2953
-37.7064
-38.1184
-38.531
-38.9435
-39.3556
-39.7668
-40.1764
-40.5836
-40.9871
-41.3857
-41.7776
-42.1608
-45.1803
-44.8311
-44.4705
-44.098
-43.7128
-43.3137
-42.8992
-42.468
-42.0191
-41.5518
-41.0666
-40.5643
-40.0467
-39.5161
-38.9751
-38.4266
-37.8737
-37.3195
-36.767
-36.2196
-35.6802
-35.152
-34.6379
-34.1407
-33.6629
-33.2065
-32.7733
-32.3646
-31.9814
-31.6242
-31.2933
-30.9886
-30.7097
-30.4558
-30.2263
-30.0201
-29.8364
-29.6742
-29.5326
-29.4107
-29.3075
-29.2223
-29.1542
-29.1025
-29.0669
-29.0472
-29.0437
-29.0568
-29.0873
-29.1362
-29.2043
-29.2928
-29.4022
-29.533
-29.6857
-29.86
-30.0558
-30.2725
-30.5092
-30.765
-31.0384
-31.3284
-31.6334
-31.9524
-32.284
-32.6272
-32.9809
-33.344
-33.7156
-34.0945
-34.4798
-34.8705
-35.2659
-35.6654
-36.0683
-36.4742
-36.8826
-37.293
-37.7048
-38.1175
-38.5306
-38.9438
-39.3567
-39.7687
-40.1795
-40.5883
-40.9939
-41.3949
-41.7897
-42.1759
-45.2148
-44.865
-44.5053
-44.135
-43.7532
-43.3578
-42.9469
-42.5184
-42.0705
-41.6025
-41.1145
-40.6076
-40.0838
-39.5457
-38.9966
-38.4395
-37.8778
-37.3147
-36.7533
-36.1969
-35.6488
-35.1123
-34.5905
-34.0863
-33.6025
-33.1412
-32.7042
-32.2928
-31.9078
-31.55
-31.2194
-30.9157
-30.6385
-30.3869
-30.1599
-29.9565
-29.7754
-29.6159
-29.4769
-29.3575
-29.2567
-29.1736
-29.1073
-29.0567
-29.0214
-29.0012
-28.9962
-29.0072
-29.0352
-29.0815
-29.1472
-29.2336
-29.3416
-29.4717
-29.6243
-29.7995
-29.9969
-30.2158
-30.4555
-30.7145
-30.9916
-31.2851
-31.5938
-31.9161
-32.2509
-32.5971
-32.9538
-33.3199
-33.6943
-34.076
-34.4638
-34.8567
-35.254
-35.655
-36.0594
-36.4667
-36.8765
-37.2883
-37.7016
-38.1156
-38.53
-38.9443
-39.3584
-39.7721
-40.1851
-40.597
-41.0067
-41.4128
-41.8132
-42.2058
-45.2641
-44.9134
-44.5551
-44.1889
-43.8129
-43.4244
-43.02
-42.5965
-42.1511
-41.6822
-41.1898
-40.6753
-40.1414
-39.5916
-39.0296
-38.4593
-37.8842
-37.3076
-36.7326
-36.1626
-35.6011
-35.0516
-34.5178
-34.003
-33.5101
-33.0414
-32.5986
-32.1831
-31.7957
-31.437
-31.1069
-30.8052
-30.531
-30.2831
-30.0602
-29.8609
-29.684
-29.5284
-29.3933
-29.2778
-29.1809
-29.1014
-29.038
-28.9894
-28.9547
-28.9336
-28.9262
-28.9336
-28.9573
-28.9991
-29.0608
-29.1438
-29.2494
-29.3783
-29.5309
-29.7073
-29.9071
-30.1297
-30.374
-30.6384
-30.9212
-31.2205
-31.5346
-31.8619
-32.2014
-32.5521
-32.9133
-33.2838
-33.6628
-34.0487
-34.4403
-34.8366
-35.2365
-35.6398
-36.0461
-36.4554
-36.8674
-37.2815
-37.6969
-38.113
-38.529
-38.9448
-39.3603
-39.776
-40.192
-40.6084
-41.0242
-41.4381
-41.8478
-42.2504
-45.3252
-44.9724
-44.6164
-44.2567
-43.8905
-43.5137
-43.1208
-42.7062
-42.2654
-41.7957
-41.2969
-40.7711
-40.2221
-39.655
-39.0749
-38.4863
-37.893
-37.2983
-36.705
-36.1164
-35.5363
-34.9688
-34.4182
-33.8886
-33.3832
-32.9044
-32.4541
-32.0333
-31.6428
-31.283
-30.9541
-30.6555
-30.386
-30.1438
-29.9269
-29.7336
-29.5622
-29.412
-29.2821
-29.172
-29.0806
-29.0066
-28.9479
-28.9026
-28.8691
-28.8466
-28.8354
-28.8371
-28.8539
-28.8887
-28.944
-29.0219
-29.1241
-29.2512
-29.4037
-29.5817
-29.7849
-30.0127
-30.2637
-30.536
-30.8272
-31.1348
-31.4564
-31.7905
-32.1359
-32.4923
-32.8592
-33.2358
-33.6211
-34.0132
-34.4103
-34.811
-35.2143
-35.62
-36.0285
-36.4402
-36.855
-37.2724
-37.6912
-38.1102
-38.5282
-38.9452
-39.3617
-39.7789
-40.1981
-40.6199
-41.0441
-41.469
-41.8919
-42.3091
-45.3927
-45.0361
-44.6832
-44.3336
-43.9836
-43.6263
-43.2528
-42.8537
-42.4214
-41.9514
-41.4432
-40.9002
-40.3291
-39.7374
-39.1325
-38.5202
-37.9043
-37.2872
-36.6709
-36.0583
-35.4536
-34.8618
-34.2887
-33.7395
-33.2181
-32.727
-32.2675
-31.8402
-31.4459
-31.0852
-30.7582
-30.4644
-30.2021
-29.9684
-29.7603
-29.575
-29.4107
-29.2666
-29.1429
-29.0396
-28.956
-28.8901
-28.8391
-28.7994
-28.7681
-28.7437
-28.7266
-28.7192
-28.7252
-28.7491
-28.795
-28.8657
-28.9631
-29.0879
-29.2402
-29.4202
-29.6278
-29.8626
-30.1231
-30.4068
-30.71
-31.029
-31.3606
-31.7028
-32.0549
-32.4175
-32.7911
-33.1756
-33.5695
-33.9704
-34.3752
-34.7815
-35.1884
-35.5961
-36.0062
-36.4201
-36.8387
-37.261
-37.6851
-38.1082
-38.5287
-38.9459
-39.3616
-39.7785
-40.1998
-40.6277
-41.0625
-41.5024
-41.9436
-42.3813
-45.4587
-45.0945
-44.745
-44.4109
-44.087
-43.7622
-43.4215
-43.0491
-42.6318
-42.1621
-41.6394
-41.0702
-40.4657
-39.8388
-39.2009
-38.5594
-37.9174
-37.275
-36.6317
-35.9893
-35.3524
-34.7282
-34.1252
-33.5508
-33.0099
-32.5045
-32.0348
-31.6002
-31.2012
-30.839
-30.5149
-30.2285
-29.9774
-29.7568
-29.5614
-29.3868
-29.2305
-29.0925
-28.9748
-28.8793
-28.8062
-28.7529
-28.7145
-28.6846
-28.6577
-28.6308
-28.6044
-28.5823
-28.5712
-28.5785
-28.6106
-28.6716
-28.7633
-28.8853
-29.0372
-29.2192
-29.4319
-29.6757
-29.9496
-30.2497
-30.5704
-30.9055
-31.2498
-31.6008
-31.959
-32.327
-32.7075
-33.1018
-33.5081
-33.9218
-34.3377
-34.7514
-35.1612
-35.5687
-35.978
-36.3933
-36.8167
-37.247
-37.6799
-38.11
-38.5333
-38.9487
-39.3593
-39.7713
-40.1915
-40.625
-41.073
-41.5331
-41.9999
-42.4663
-45.5111
-45.1315
-44.7846
-44.4737
-44.1918
-43.921
-43.636
-43.3092
-42.9179
-42.4491
-41.9028
-41.2912
-40.6348
-39.9564
-39.2746
-38.5996
-37.9314
-37.2642
-36.5917
-35.9127
-35.2331
-34.5645
-33.9209
-33.3141
-32.7508
-32.2311
-31.7517
-31.3093
-30.9038
-30.5385
-30.2177
-29.9424
-29.709
-29.5092
-29.3331
-29.1726
-29.0242
-28.8898
-28.7754
-28.6873
-28.6283
-28.5949
-28.578
-28.5659
-28.5479
-28.5179
-28.4763
-28.4302
-28.3913
-28.3726
-28.3849
-28.434
-28.52
-28.6401
-28.7915
-28.9742
-29.1914
-29.4461
-29.7385
-30.0631
-30.4103
-30.7688
-31.1296
-31.4888
-31.8492
-32.2183
-32.6042
-33.011
-33.4358
-33.8703
-34.3035
-34.7268
-35.1371
-35.5387
-35.9412
-36.3546
-36.7847
-37.229
-37.6785
-38.1215
-38.5488
-38.9579
-39.3547
-39.7519
-40.1638
-40.6008
-41.0655
-41.5537
-42.0564
-42.5629
-45.5317
-45.1214
-44.7725
-44.4947
-44.2804
-44.1004
-43.9105
-43.6622
-43.3155
-42.8478
-42.2602
-41.5767
-40.8358
-40.0789
-39.3389
-38.63
-37.9444
-37.2612
-36.5612
-35.8371
-35.0981
-34.3651
-33.6638
-33.0153
-32.4291
-31.9002
-31.4158
-30.9656
-30.5488
-30.1746
-29.8551
-29.5965
-29.3928
-29.2279
-29.0827
-28.9416
-28.7983
-28.6588
-28.5384
-28.4539
-28.4141
-28.4136
-28.4352
-28.4562
-28.4559
-28.4221
-28.3551
-28.2681
-28.1827
-28.1226
-28.1068
-28.1435
-28.2283
-28.3503
-28.5009
-28.6802
-28.8971
-29.1626
-29.4811
-29.8444
-30.2343
-30.6291
-31.0116
-31.3752
-31.7272
-32.0857
-32.4709
-32.894
-33.3499
-33.8206
-34.2836
-34.7207
-35.1255
-35.5074
-35.8882
-36.2919
-36.7319
-37.2033
-37.6861
-38.1552
-38.5903
-38.9845
-39.3493
-39.7108
-40.0995
-40.5361
-41.024
-41.5529
-42.1069
-42.67
-45.4935
-45.0227
-44.658
-44.4243
-44.3197
-44.2944
-44.2689
-44.1572
-43.8876
-43.419
-42.7557
-41.9452
-41.0598
-40.1771
-39.3585
-38.6272
-37.9538
-37.2829
-36.5654
-35.7833
-34.9547
-34.1206
-33.3308
-32.627
-32.0253
-31.5054
-31.031
-30.574
-30.1329
-29.7321
-29.4052
-29.172
-29.0209
-28.9188
-28.827
-28.7141
-28.5675
-28.4007
-28.2501
-28.1565
-28.1436
-28.201
-28.2936
-28.3776
-28.4127
-28.3744
-28.2631
-28.1042
-27.9381
-27.8092
-27.7534
-27.784
-27.8833
-28.0196
-28.1692
-28.3323
-28.533
-28.803
-29.1594
-29.5878
-30.0514
-30.5074
-30.9212
-31.2786
-31.5957
-31.9146
-32.2833
-32.7299
-33.2424
-33.782
-34.301
-34.761
-35.1468
-35.4775
-35.8023
-36.1768
-36.6339
-37.1607
-37.7133
-38.2378
-38.6903
-39.0533
-39.3481
-39.6305
-39.9657
-40.397
-40.923
-41.5155
-42.1439
-42.7866
-45.3572
-44.7714
-44.3547
-44.168
-44.2448
-44.489
-44.7514
-44.8796
-44.7463
-44.2709
-43.4632
-42.4216
-41.2801
-40.1832
-39.2527
-38.5411
-37.9599
-37.3718
-36.6627
-35.797
-34.8194
-33.8123
-32.8742
-32.0919
-31.5038
-31.0456
-30.6214
-30.1601
-29.6591
-29.1835
-28.8208
-28.6298
-28.5787
-28.5953
-28.6018
-28.5357
-28.366
-28.1198
-27.88
-27.7433
-27.7725
-27.9378
-28.1651
-28.3695
-28.4757
-28.4324
-28.2401
-27.951
-27.6401
-27.3908
-27.2758
-27.326
-27.4853
-27.67
-27.8184
-27.9307
-28.0695
-28.319
-28.7345
-29.2804
-29.8796
-30.4466
-30.912
-31.2401
-31.4617
-31.6719
-31.9837
-32.4707
-33.0962
-33.7729
-34.4034
-34.9083
-35.2472
-35.456
-35.6445
-35.9427
-36.4353
-37.081
-37.7806
-38.4236
-38.9191
-39.2199
-39.3643
-39.4737
-39.6932
-40.1215
-40.7256
-41.4263
-42.16
-42.9085
-45.0605
-44.2762
-43.7202
-43.532
-43.929
-44.6572
-45.4273
-45.9785
-46.0978
-45.6012
-44.5076
-43.042
-41.4363
-39.9497
-38.8319
-38.2672
-37.9763
-37.6353
-36.9855
-35.972
-34.7267
-33.4052
-32.1937
-31.2774
-30.7954
-30.5373
-30.2654
-29.8036
-29.1491
-28.4729
-27.9897
-27.8863
-28.0393
-28.2869
-28.4816
-28.5069
-28.2751
-27.8301
-27.362
-27.0917
-27.206
-27.5857
-28.0699
-28.5035
-28.7547
-28.7054
-28.3569
-27.8296
-27.254
-26.7796
-26.5607
-26.7115
-27.0508
-27.3733
-27.5199
-27.4914
-27.447
-27.5963
-28.122
-28.8968
-29.7541
-30.5324
-31.1009
-31.3554
-31.3442
-31.2831
-31.4319
-32.012
-32.8763
-33.8303
-34.6867
-35.2946
-35.5348
-35.4634
-35.3288
-35.4286
-36.0159
-36.9234
-37.9294
-38.8215
-39.4278
-39.6115
-39.4306
-39.158
-39.1197
-39.5925
-40.3887
-41.289
-42.1547
-43.0136
-44.4689
-43.4522
-42.5554
-42.053
-43.1358
-44.7652
-46.418
-47.6997
-48.3361
-47.7914
-46.0876
-43.8642
-41.4214
-39.1852
-37.6147
-37.5994
-38.0648
-38.3438
-37.8325
-36.4813
-34.7439
-32.8399
-31.0885
-29.838
-29.7651
-30.0493
-30.1835
-29.725
-28.671
-27.4848
-26.6121
-26.7742
-27.3645
-28.0553
-28.6058
-28.849
-28.492
-27.5746
-26.5598
-25.8868
-26.2583
-27.084
-28.0481
-28.9007
-29.467
-29.41
-28.7317
-27.7789
-26.7226
-25.8015
-25.3137
-25.8262
-26.6414
-27.33
-27.4743
-27.0755
-26.5461
-26.3321
-27.1513
-28.3948
-29.743
-30.9205
-31.7423
-31.8535
-31.2989
-30.5921
-30.2594
-31.1443
-32.5274
-34.0284
-35.3277
-36.2102
-36.2712
-35.5618
-34.6754
-34.2123
-35.1353
-36.6236
-38.2418
-39.6305
-40.5449
-40.5275
-39.6286
-38.5042
-37.8098
-38.5972
-39.9013
-41.2013
-42.1584
-42.9844
-43.0663
-42.4556
-40.823
-38.2917
-41.5557
-44.8395
-47.9433
-50.3502
-52.2751
-51.6509
-48.4161
-45.0025
-41.1091
-37.4621
-34.1583
-36.2397
-38.422
-40.1906
-39.8892
-37.5469
-35.0013
-32.0552
-29.2623
-26.7029
-28.2206
-29.7779
-30.9553
-30.5042
-28.3838
-26.0453
-23.7448
-25.0459
-26.5453
-28.0262
-29.1731
-30.0556
-29.5167
-27.4594
-25.2658
-23.1781
-24.6569
-26.3833
-28.1876
-29.7108
-31.0774
-31.01
-29.5024
-27.8776
-25.9969
-24.1996
-22.6266
-24.5051
-26.4148
-28.0712
-28.2109
-26.8477
-25.1915
-23.5801
-25.5699
-27.7424
-29.9777
-31.8212
-33.4071
-33.3105
-31.4729
-29.3625
-27.3336
-29.5592
-32.0087
-34.5168
-36.569
-38.3087
-38.1167
-35.915
-33.4125
-30.9997
-33.4403
-36.1365
-38.8845
-41.1223
-43.0032
-42.7125
-40.1508
-37.2311
-34.3657
-36.8575
-39.4191
-41.6068
-42.3502
-42.2156
-37.997
-42.9309
-40.3841
-26.1851
-39.9467
-45.1731
-50.472
-53.6949
-59.8849
-59.2698
-51.002
-46.8318
-40.442
-35.2452
-22.9472
-34.7349
-39.375
-45.0186
-44.885
-38.9054
-35.836
-31.0501
-27.1002
-17.6972
-26.6197
-30.0538
-34.0726
-33.6878
-28.4112
-24.5515
-15.6915
-23.0328
-25.7532
-28.4786
-30.1218
-33.3097
-32.7284
-27.5414
-23.8199
-15.3343
-22.6996
-25.5712
-28.7325
-30.747
-34.7536
-34.6845
-30.4426
-28.3454
-25.1519
-22.2751
-14.97
-23.1398
-26.5535
-30.9969
-31.1121
-27.0425
-23.773
-15.6426
-23.726
-27
-30.7769
-33.0933
-37.495
-37.2746
-32.0403
-28.0156
-18.2814
-27.6518
-31.4056
-35.6618
-38.2602
-43.189
-42.8561
-36.7013
-32.0201
-20.7979
-31.3772
-35.5744
-40.2617
-43.1275
-48.5883
-48.1671
-41.1882
-35.8791
-23.2068
-35.0167
-39.4751
-44.0913
-43.805
-37.5037
-42.5692
-42.997
-43.4023
-43.7817
-44.1326
-44.4528
-44.741
-44.9964
-45.2188
-45.4082
-45.5649
-45.6896
-45.7825
-45.8442
-45.8749
-42.5877
-43.0191
-43.4277
-43.8097
-44.1626
-44.4842
-44.7732
-45.0289
-45.2512
-45.4402
-45.5965
-45.7207
-45.8131
-45.8745
-45.9051
-42.6247
-43.0637
-43.4788
-43.8664
-44.2233
-44.5476
-44.8381
-45.0942
-45.3162
-45.5044
-45.6597
-45.7828
-45.8743
-45.935
-45.9652
-42.6806
-43.1314
-43.557
-43.953
-44.3161
-44.6443
-44.9367
-45.1931
-45.4143
-45.601
-45.7545
-45.8757
-45.9657
-46.0253
-46.0549
-42.7558
-43.2238
-43.6643
-44.0719
-44.4432
-44.7762
-45.0705
-45.3267
-45.5461
-45.7303
-45.8809
-45.9994
-46.087
-46.1449
-46.1737
-42.8513
-43.3431
-43.8037
-44.2267
-44.608
-44.9462
-45.2419
-45.4966
-45.7126
-45.8926
-46.0387
-46.1532
-46.2375
-46.293
-46.3206
-42.9685
-43.4929
-43.9803
-44.4224
-44.8152
-45.1582
-45.4535
-45.7043
-45.9146
-46.088
-46.2277
-46.3364
-46.4161
-46.4685
-46.4944
-43.11
-43.6791
-44.2016
-44.667
-45.0717
-45.4173
-45.7088
-45.952
-46.1529
-46.3164
-46.447
-46.5479
-46.6215
-46.6697
-46.6936
-43.2805
-43.9113
-44.4796
-44.972
-45.3867
-45.7301
-46.0118
-46.2415
-46.4277
-46.5772
-46.6953
-46.7859
-46.8518
-46.8947
-46.9159
-43.4876
-44.2055
-44.8332
-45.3541
-45.7727
-46.1043
-46.3663
-46.5738
-46.7385
-46.8687
-46.9705
-47.0481
-47.1042
-47.1407
-47.1587
-43.7435
-44.5896
-45.2931
-45.8379
-46.2455
-46.548
-46.7752
-46.9487
-47.083
-47.1878
-47.2692
-47.3309
-47.3756
-47.4046
-47.4189
-44.0643
-45.1157
-45.9111
-46.4579
-46.8224
-47.0671
-47.2378
-47.3623
-47.4567
-47.5298
-47.5867
-47.6301
-47.6618
-47.6825
-47.6928
-44.474
-45.8967
-46.7769
-47.2586
-47.5167
-47.6597
-47.7464
-47.806
-47.8511
-47.8873
-47.9169
-47.9404
-47.9582
-47.9702
-47.9762
-45.068
-47.2198
-48.0422
-48.2833
-48.3242
-48.3073
-48.2823
-48.2638
-48.254
-48.251
-48.2523
-48.2558
-48.2598
-48.263
-48.2648
-46.634
-49.8704
-49.888
-49.5085
-49.1874
-48.9622
-48.8115
-48.713
-48.6497
-48.6096
-48.5848
-48.5699
-48.5612
-48.5566
-48.5546
-51.4452
-51.4516
-51.4649
-51.4866
-51.5191
-51.5662
-51.6339
-51.7316
-51.8752
-52.0929
-52.4403
-53.0445
-54.2598
-57.3162
-67.4314
-51.6795
-51.6888
-51.7081
-51.7392
-51.7849
-51.8501
-51.9419
-52.0719
-52.2594
-52.5382
-52.9716
-53.6897
-54.979
-57.4823
-62.3748
-51.9071
-51.9188
-51.9429
-51.9813
-52.0372
-52.1153
-52.2232
-52.3722
-52.5802
-52.8759
-53.305
-53.9379
-54.855
-55.9891
-56.2651
-52.1265
-52.1398
-52.1674
-52.2111
-52.2737
-52.3597
-52.4758
-52.6314
-52.8401
-53.1206
-53.4964
-53.9883
-54.5802
-55.0916
-54.8033
-52.3362
-52.3508
-52.3807
-52.4274
-52.4937
-52.5831
-52.7008
-52.8537
-53.0501
-53.299
-53.6066
-53.969
-54.361
-54.7493
-55.3739
-52.5356
-52.5508
-52.5818
-52.63
-52.6973
-52.7866
-52.9014
-53.0458
-53.2236
-53.4362
-53.6781
-53.9292
-54.1443
-54.2425
-54.152
-52.7242
-52.7396
-52.7709
-52.819
-52.8855
-52.9722
-53.0813
-53.2147
-53.3729
-53.5527
-53.7424
-53.9144
-54.0089
-53.8662
-52.8705
-52.9018
-52.9171
-52.9479
-52.9949
-53.0593
-53.142
-53.2443
-53.3665
-53.5073
-53.6619
-53.818
-53.9533
-54.038
-54.082
-54.5761
-53.0686
-53.0834
-53.1133
-53.1586
-53.22
-53.2982
-53.3934
-53.5053
-53.6323
-53.7695
-53.9072
-54.0274
-54.0955
-53.9848
-52.9533
-53.2248
-53.239
-53.2676
-53.3108
-53.3689
-53.4422
-53.5307
-53.6338
-53.7501
-53.8764
-54.0074
-54.1375
-54.277
-54.5266
-55.6196
-53.3708
-53.3843
-53.4114
-53.4523
-53.5069
-53.5755
-53.6577
-53.7532
-53.8611
-53.9798
-54.107
-54.2412
-54.3821
-54.482
-54.047
-53.507
-53.5198
-53.5454
-53.5838
-53.635
-53.699
-53.7755
-53.8642
-53.9647
-54.0768
-54.2006
-54.3402
-54.5157
-54.8085
-55.7084
-53.6341
-53.6461
-53.6701
-53.7061
-53.754
-53.8135
-53.8846
-53.9669
-54.0604
-54.1653
-54.2821
-54.414
-54.5679
-54.7127
-54.4667
-53.7524
-53.7637
-53.7862
-53.8199
-53.8645
-53.9199
-53.9858
-54.062
-54.1484
-54.2449
-54.3519
-54.4727
-54.6262
-54.8878
-55.6592
-53.8626
-53.8732
-53.8942
-53.9256
-53.9672
-54.0186
-54.0797
-54.1501
-54.2294
-54.3169
-54.4108
-54.5085
-54.6094
-54.7084
-54.7909
-53.9651
-53.975
-53.9946
-54.0239
-54.0626
-54.1104
-54.167
-54.2321
-54.3048
-54.384
-54.4658
-54.5421
-54.5939
-54.5397
-53.9844
-54.0604
-54.0696
-54.088
-54.1153
-54.1514
-54.1959
-54.2484
-54.3087
-54.376
-54.4487
-54.5233
-54.5928
-54.6519
-54.7184
-55.0946
-54.1489
-54.1575
-54.1747
-54.2002
-54.2339
-54.2754
-54.3244
-54.3806
-54.4434
-54.5118
-54.5827
-54.6507
-54.7047
-54.6814
-54.173
-54.231
-54.2391
-54.2552
-54.2791
-54.3106
-54.3494
-54.3953
-54.4479
-54.5071
-54.5725
-54.6428
-54.7184
-54.8111
-54.9806
-55.6191
-54.3072
-54.3148
-54.3299
-54.3523
-54.3819
-54.4183
-54.4613
-54.5108
-54.5668
-54.6292
-54.6979
-54.7741
-54.8642
-54.9533
-54.7976
-54.3776
-54.3848
-54.399
-54.4201
-54.448
-54.4822
-54.5227
-54.5693
-54.622
-54.681
-54.7462
-54.82
-54.9182
-55.0952
-55.6222
-54.4427
-54.4495
-54.4629
-54.4829
-54.5092
-54.5415
-54.5797
-54.6236
-54.6731
-54.728
-54.7869
-54.849
-54.9174
-54.9933
-55.0687
-54.5026
-54.5091
-54.5219
-54.5408
-54.5658
-54.5965
-54.6327
-54.6742
-54.7207
-54.7715
-54.824
-54.8735
-54.9113
-54.891
-54.5729
-54.5577
-54.5638
-54.5761
-54.5942
-54.618
-54.6473
-54.6818
-54.7213
-54.7655
-54.8132
-54.8616
-54.9061
-54.9456
-54.9947
-55.2409
-54.608
-54.614
-54.6257
-54.6431
-54.666
-54.6941
-54.7274
-54.7654
-54.8079
-54.8539
-54.9003
-54.9421
-54.9731
-54.9608
-54.706
-54.6539
-54.6596
-54.6709
-54.6877
-54.7099
-54.7372
-54.7694
-54.8065
-54.8481
-54.8936
-54.9406
-54.9857
-55.0307
-55.0946
-55.3597
-54.6953
-54.7008
-54.7118
-54.7282
-54.7498
-54.7764
-54.8079
-54.8444
-54.8858
-54.9317
-54.9805
-55.0291
-55.0753
-55.0877
-54.8431
-54.7323
-54.7378
-54.7485
-54.7646
-54.7857
-54.8118
-54.8429
-54.8791
-54.9205
-54.9673
-55.0186
-55.0743
-55.1434
-55.2586
-55.6277
-54.7652
-54.7705
-54.7811
-54.7969
-54.8177
-54.8435
-54.8743
-54.9103
-54.9518
-54.9991
-55.0519
-55.1102
-55.1793
-55.2523
-55.2093
-54.7939
-54.7992
-54.8096
-54.8252
-54.8458
-54.8713
-54.9019
-54.9377
-54.9791
-55.0265
-55.0795
-55.1385
-55.2125
-55.3258
-55.5995
-54.8185
-54.8237
-54.834
-54.8495
-54.8699
-54.8953
-54.9257
-54.9613
-55.0025
-55.0494
-55.1011
-55.1563
-55.2183
-55.2871
-55.3533
-54.8389
-54.8441
-54.8544
-54.8698
-54.8901
-54.9154
-54.9457
-54.9812
-55.0221
-55.0683
-55.1184
-55.1694
-55.2195
-55.2492
-55.1592
-54.8553
-54.8605
-54.8708
-54.8861
-54.9065
-54.9317
-54.962
-54.9974
-55.0381
-55.084
-55.1332
-55.183
-55.2349
-55.2937
-55.423
-54.8676
-54.8728
-54.8831
-54.8985
-54.9188
-54.9442
-54.9745
-55.01
-55.0507
-55.0966
-55.1457
-55.1951
-55.2454
-55.2882
-55.2688
-54.8758
-54.881
-54.8914
-54.9068
-54.9273
-54.9528
-54.9833
-55.019
-55.0601
-55.1063
-55.156
-55.2066
-55.2612
-55.325
-55.4379
-54.8798
-54.8851
-54.8955
-54.9111
-54.9318
-54.9575
-54.9883
-55.0245
-55.0661
-55.113
-55.1635
-55.2153
-55.2705
-55.3269
-55.3616
-54.8797
-54.885
-54.8956
-54.9113
-54.9322
-54.9583
-54.9896
-55.0262
-55.0686
-55.1164
-55.1682
-55.2215
-55.2792
-55.3427
-55.4201
-54.8753
-54.8807
-54.8914
-54.9074
-54.9286
-54.9551
-54.9868
-55.0242
-55.0674
-55.1165
-55.1697
-55.2246
-55.2837
-55.3481
-55.4349
-54.8667
-54.8722
-54.8831
-54.8993
-54.9208
-54.9477
-54.9801
-55.0182
-55.0625
-55.1129
-55.168
-55.2249
-55.2844
-55.3368
-55.3367
-54.8538
-54.8593
-54.8704
-54.8869
-54.9088
-54.9362
-54.9692
-55.0081
-55.0535
-55.1055
-55.1628
-55.2234
-55.2901
-55.3611
-55.4254
-54.8365
-54.8421
-54.8533
-54.8701
-54.8924
-54.9203
-54.9539
-54.9937
-55.0402
-55.0936
-55.1531
-55.2176
-55.2928
-55.3891
-55.5656
-54.8147
-54.8204
-54.8319
-54.8489
-54.8716
-54.9
-54.9343
-54.9748
-55.0222
-55.0768
-55.1379
-55.2044
-55.2808
-55.3603
-55.3651
-54.7884
-54.7942
-54.8058
-54.8232
-54.8463
-54.8752
-54.9101
-54.9513
-54.9994
-55.0547
-55.1166
-55.1845
-55.2666
-55.3824
-55.6453
-54.7575
-54.7634
-54.7752
-54.7929
-54.8165
-54.8459
-54.8814
-54.9232
-54.9718
-55.0274
-55.0888
-55.1547
-55.229
-55.3013
-55.2445
-54.7218
-54.7279
-54.74
-54.758
-54.782
-54.812
-54.848
-54.8905
-54.9396
-54.9952
-55.0557
-55.119
-55.1928
-55.3089
-55.6822
-54.6815
-54.6876
-54.6999
-54.7183
-54.7428
-54.7733
-54.8101
-54.8533
-54.9031
-54.959
-55.0183
-55.076
-55.1274
-55.1367
-54.8741
-54.6362
-54.6425
-54.655
-54.6738
-54.6987
-54.7299
-54.7675
-54.8117
-54.8626
-54.9197
-54.9798
-55.0373
-55.0911
-55.1522
-55.4031
-54.586
-54.5924
-54.6052
-54.6243
-54.6498
-54.6817
-54.7202
-54.7656
-54.8182
-54.8775
-54.9407
-55.0013
-55.0498
-55.0349
-54.709
-54.5308
-54.5373
-54.5503
-54.5698
-54.5958
-54.6284
-54.6679
-54.7146
-54.7692
-54.8318
-54.901
-54.9738
-55.0524
-55.1326
-55.2008
-54.4705
-54.4771
-54.4903
-54.5102
-54.5366
-54.5699
-54.6103
-54.6583
-54.7149
-54.7809
-54.8563
-54.9424
-55.0537
-55.2376
-55.7473
-54.4049
-54.4117
-54.4251
-54.4453
-54.4722
-54.506
-54.5472
-54.5963
-54.6544
-54.7227
-54.8019
-54.8934
-55.0047
-55.1153
-54.9725
-54.3341
-54.3409
-54.3546
-54.375
-54.4023
-54.4367
-54.4784
-54.5282
-54.587
-54.6562
-54.7364
-54.8307
-54.9563
-55.1679
-55.7889
-54.258
-54.2649
-54.2787
-54.2993
-54.327
-54.3617
-54.4038
-54.4539
-54.5128
-54.5812
-54.6589
-54.7461
-54.8481
-54.9351
-54.6712
-54.1764
-54.1834
-54.1973
-54.2182
-54.2461
-54.2811
-54.3235
-54.3737
-54.4322
-54.4989
-54.5723
-54.6513
-54.7505
-54.9449
-55.7509
-54.0894
-54.0964
-54.1105
-54.1315
-54.1596
-54.1949
-54.2376
-54.288
-54.3461
-54.4111
-54.4793
-54.5425
-54.5866
-54.5289
-53.8387
-53.9969
-54.004
-54.0181
-54.0393
-54.0676
-54.1032
-54.1462
-54.197
-54.2554
-54.3205
-54.3873
-54.4469
-54.4934
-54.5511
-55.0143
-53.8989
-53.906
-53.9202
-53.9415
-53.9699
-54.0058
-54.0492
-54.1008
-54.1605
-54.2277
-54.2979
-54.3605
-54.3925
-54.2904
-53.5477
-53.7954
-53.8025
-53.8167
-53.838
-53.8665
-53.9026
-53.9465
-53.999
-54.0607
-54.1321
-54.2113
-54.2952
-54.3847
-54.4736
-54.5449
-53.6863
-53.6934
-53.7075
-53.7288
-53.7573
-53.7934
-53.8377
-53.8909
-53.9545
-54.0301
-54.1191
-54.2261
-54.3774
-54.6676
-55.5996
-53.5717
-53.5787
-53.5927
-53.6138
-53.6422
-53.6782
-53.7224
-53.7758
-53.8402
-53.918
-54.0117
-54.1263
-54.2735
-54.415
-54.0756
-53.4515
-53.4585
-53.4723
-53.4932
-53.5212
-53.5568
-53.6004
-53.6533
-53.717
-53.794
-53.8872
-54.004
-54.1736
-54.495
-55.5577
-53.326
-53.3328
-53.3464
-53.3669
-53.3944
-53.4293
-53.4719
-53.5234
-53.5848
-53.6579
-53.7438
-53.845
-53.9683
-54.0592
-53.5196
-53.1951
-53.2017
-53.215
-53.2351
-53.2619
-53.2958
-53.3372
-53.3866
-53.4448
-53.5121
-53.5873
-53.6707
-53.7854
-54.0601
-55.381
-53.0589
-53.0654
-53.0783
-53.0978
-53.1238
-53.1567
-53.1966
-53.244
-53.2988
-53.3599
-53.4224
-53.4747
-53.4915
-53.3332
-52.1023
-52.9176
-52.9239
-52.9364
-52.9552
-52.9804
-53.0122
-53.0507
-53.0963
-53.1487
-53.2061
-53.262
-53.3033
-53.3192
-53.3499
-54.0423
-52.7713
-52.7773
-52.7894
-52.8076
-52.8319
-52.8625
-52.8998
-52.944
-52.9954
-53.0524
-53.109
-53.1497
-53.1367
-52.906
-51.6515
-52.6201
-52.6259
-52.6375
-52.6549
-52.6783
-52.7077
-52.7438
-52.787
-52.8384
-52.8982
-52.9645
-53.0335
-53.1052
-53.1719
-53.2174
-52.4643
-52.4699
-52.4809
-52.4975
-52.5198
-52.5479
-52.5825
-52.6246
-52.6759
-52.7385
-52.8155
-52.9154
-53.0774
-53.4512
-54.8232
-52.3041
-52.3093
-52.3198
-52.3355
-52.3565
-52.3831
-52.4159
-52.456
-52.5057
-52.5681
-52.648
-52.7541
-52.9025
-53.036
-52.4386
-52.1395
-52.1444
-52.1543
-52.1691
-52.1888
-52.2135
-52.2439
-52.281
-52.3268
-52.3847
-52.4597
-52.5636
-52.7378
-53.1274
-54.5986
-51.9708
-51.9755
-51.9848
-51.9986
-52.0168
-52.0396
-52.0671
-52.1001
-52.1399
-52.1887
-52.2486
-52.3243
-52.4236
-52.4663
-51.5898
-51.7983
-51.8027
-51.8114
-51.8243
-51.8412
-51.8618
-51.8863
-51.9146
-51.9472
-51.984
-52.0239
-52.0685
-52.1487
-52.4424
-54.1792
-51.622
-51.6262
-51.6345
-51.6466
-51.6622
-51.681
-51.7025
-51.7264
-51.7517
-51.7762
-51.7933
-51.7882
-51.7256
-51.4151
-49.6306
-51.4422
-51.4462
-51.4542
-51.4657
-51.4804
-51.4977
-51.517
-51.5373
-51.5572
-51.5729
-51.5754
-51.5478
-51.4748
-51.4101
-52.2033
-51.2589
-51.2629
-51.2707
-51.282
-51.2961
-51.3126
-51.3305
-51.3488
-51.3658
-51.3778
-51.3757
-51.3389
-51.2182
-50.8081
-49.0908
-51.0722
-51.0762
-51.0841
-51.0955
-51.1097
-51.126
-51.1436
-51.1614
-51.1782
-51.1917
-51.1974
-51.1884
-51.1625
-51.1126
-51.0382
-50.882
-50.8862
-50.8945
-50.9063
-50.9211
-50.9381
-50.9563
-50.9749
-50.993
-51.0103
-51.0267
-51.0495
-51.1236
-51.433
-52.9421
-50.6883
-50.6928
-50.7017
-50.7144
-50.7304
-50.7488
-50.7686
-50.7888
-50.8089
-50.8285
-50.8488
-50.8752
-50.9213
-50.9191
-50.0429
-50.4908
-50.4958
-50.5055
-50.5196
-50.5374
-50.558
-50.5803
-50.6032
-50.6252
-50.6455
-50.664
-50.6872
-50.7525
-51.0108
-52.4026
-50.2892
-50.2947
-50.3056
-50.3215
-50.3417
-50.3655
-50.3916
-50.4182
-50.443
-50.463
-50.4734
-50.4701
-50.4496
-50.3143
-49.1594
-50.0831
-50.0893
-50.1016
-50.1196
-50.143
-50.171
-50.2023
-50.2347
-50.2646
-50.2862
-50.2897
-50.2649
-50.2264
-50.3245
-51.6999
-49.8722
-49.8791
-49.8928
-49.9134
-49.9405
-49.9738
-50.012
-50.053
-50.0922
-50.1211
-50.123
-50.0692
-49.9084
-49.4467
-47.5723
-49.6558
-49.6634
-49.6787
-49.7019
-49.7332
-49.7726
-49.8197
-49.8727
-49.9273
-49.9739
-49.9923
-49.9479
-49.7995
-49.5485
-49.7822
-49.4335
-49.4417
-49.4584
-49.4841
-49.5196
-49.5657
-49.6231
-49.6915
-49.7684
-49.8455
-49.9025
-49.8988
-49.7618
-49.3126
-47.8968
-49.2049
-49.2135
-49.2312
-49.2589
-49.298
-49.3504
-49.4186
-49.5046
-49.6095
-49.7301
-49.8523
-49.9425
-49.941
-49.7468
-49.3017
-48.9697
-48.9784
-48.9964
-49.0251
-49.0665
-49.1239
-49.2014
-49.3047
-49.4401
-49.6129
-49.8217
-50.0497
-50.2541
-50.3541
-50.4052
-48.7279
-48.7362
-48.7536
-48.7818
-48.8234
-48.8828
-48.9663
-49.0827
-49.245
-49.4697
-49.7753
-50.1733
-50.6397
-50.9941
-50.7018
-48.4797
-48.4871
-48.5027
-48.5284
-48.5674
-48.6247
-48.7079
-48.8291
-49.0067
-49.2696
-49.662
-50.2496
-51.1032
-52.0822
-51.6533
-48.2259
-48.2317
-48.2442
-48.2652
-48.2981
-48.348
-48.4231
-48.5365
-48.7095
-48.9787
-49.4107
-50.1411
-51.4796
-54.1468
-59.7669
-47.9674
-47.971
-47.979
-47.9932
-48.0164
-48.0534
-48.1115
-48.2025
-48.3456
-48.574
-48.9497
-49.6105
-50.9335
-54.1595
-64.3386
-65.5863
-55.2495
-51.9441
-50.5778
-49.8888
-49.4929
-49.2486
-49.0925
-48.9908
-48.9239
-48.8799
-48.8513
-48.8332
-48.8225
-48.8176
-61.3296
-55.2555
-52.467
-51.0796
-50.3207
-49.8693
-49.585
-49.3998
-49.2765
-49.1933
-49.1371
-49.0993
-49.0746
-49.0598
-49.0528
-52.2447
-52.9787
-52.0172
-51.1449
-50.5372
-50.1287
-49.8526
-49.6641
-49.5341
-49.4437
-49.3808
-49.3375
-49.3087
-49.291
-49.2826
-51.7105
-51.878
-51.506
-51.0262
-50.6134
-50.2951
-50.0595
-49.8881
-49.7641
-49.6746
-49.6104
-49.5651
-49.5343
-49.5152
-49.5061
-51.0671
-51.1508
-51.0702
-50.8606
-50.6219
-50.4033
-50.2219
-50.0792
-49.9699
-49.8875
-49.8264
-49.782
-49.7513
-49.7319
-49.7226
-50.0423
-50.5365
-50.7245
-50.7149
-50.6145
-50.4845
-50.3575
-50.2472
-50.1569
-50.0853
-50.0301
-49.9889
-49.9597
-49.9411
-49.932
-49.0122
-50.1337
-50.5164
-50.6321
-50.6254
-50.5628
-50.4817
-50.4016
-50.3306
-50.2712
-50.2235
-50.1868
-50.1603
-50.143
-50.1345
-50.3067
-50.2429
-50.4941
-50.6339
-50.6732
-50.6529
-50.6053
-50.5499
-50.4962
-50.4486
-50.4087
-50.3771
-50.3537
-50.3382
-50.3306
-48.5569
-50.1321
-50.5496
-50.7053
-50.7601
-50.761
-50.7345
-50.6971
-50.6574