/*--------------------------------*- C++ -*----------------------------------*\
| =========                 |                                                 |
| \\      /  F ield         | OpenFOAM: The Open Source CFD Toolbox           |
|  \\    /   O peration     | Version:  5.x                                   |
|   \\  /    A nd           | Web:      www.OpenFOAM.org                      |
|    \\/     M anipulation  |                                                 |
\*---------------------------------------------------------------------------*/
FoamFile
{
    version     2.0;
    format      ascii;
    class       volScalarField;
    location    "2.5";
    object      gradTy;
}
// * * * * * * * * * * * * * * * * * * * * * * * * * * * * * * * * * * * * * //

dimensions      [0 -1 0 1 0 0 0];

internalField   nonuniform List<scalar> 
6300
(
32275.7
32227.2
32178.6
32130.2
32081.8
32033.6
31985.6
31937.7
31890.1
31842.7
31795.6
31748.8
31702.3
31656.2
31610.5
-0.021523
-0.064655
-0.108031
-0.151762
-0.195891
-0.240357
-0.284977
-0.329421
-0.373215
-0.415755
-0.456369
-0.494406
-0.529372
-0.561081
-0.589797
-0.0357789
-0.107491
-0.179652
-0.252487
-0.326096
-0.400409
-0.475135
-0.549732
-0.623382
-0.695021
-0.763421
-0.827353
-0.885823
-0.938374
-0.98536
-0.0498723
-0.14987
-0.250599
-0.352439
-0.455598
-0.560045
-0.665422
-0.770986
-0.875554
-0.977517
-1.07493
-1.16575
-1.24818
-1.32121
-1.38512
-0.0637073
-0.191507
-0.320419
-0.451048
-0.583787
-0.718717
-0.855485
-0.993192
-1.13028
-1.26451
-1.39298
-1.51246
-1.61987
-1.71308
-1.79193
-0.0771612
-0.232035
-0.38852
-0.547539
-0.709774
-0.875534
-1.04459
-1.21599
-1.38785
-1.55721
-1.71998
-1.87121
-2.0057
-2.11928
-2.21047
-0.0900609
-0.270944
-0.454072
-0.640792
-0.832209
-1.02902
-1.23131
-1.43827
-1.64786
-1.85643
-2.05847
-2.24662
-2.41237
-2.54778
-2.64838
-0.102194
-0.307595
-0.516008
-0.729321
-0.949211
-1.17698
-1.4133
-1.65786
-1.90881
-2.16211
-2.41077
-2.64436
-2.84932
-3.01105
-3.11859
-0.113308
-0.341222
-0.573021
-0.811241
-1.05829
-1.31633
-1.58701
-1.871
-2.16736
-2.47236
-2.77806
-3.07066
-3.32946
-3.52845
-3.64329
-0.123117
-0.37095
-0.623591
-0.884293
-1.15634
-1.443
-1.74732
-2.07171
-2.41718
-2.78183
-3.15841
-3.53071
-3.86936
-4.13001
-4.26101
-0.131325
-0.395854
-0.666074
-0.945958
-1.23974
-1.55196
-1.88749
-2.25128
-2.64776
-3.0793
-3.54299
-4.02437
-4.48724
-4.86119
-5.04032
-0.137647
-0.415049
-0.698864
-0.993689
-1.30463
-1.63755
-1.99932
-2.39808
-2.8432
-3.34458
-3.90981
-4.53652
-5.19399
-5.78712
-6.10969
-0.141858
-0.427812
-0.720611
-1.02526
-1.34749
-1.69421
-2.07409
-2.49844
-2.98233
-3.54595
-4.21513
-5.01785
-5.96499
-6.98342
-7.73345
-0.143822
-0.433711
-0.730475
-1.0392
-1.36581
-1.71764
-2.10433
-2.53919
-3.04169
-3.64169
-4.38687
-5.35466
-6.66451
-8.44776
-10.5108
-0.143535
-0.432712
-0.728343
-1.03519
-1.35882
-1.70615
-2.0863
-2.51222
-3.00348
-3.59221
-4.33595
-5.34923
-6.89026
-9.6319
-15.6332
31568.9
31531.4
31494.2
31457.3
31420.7
31384.5
31348.5
31313
31277.8
31243
31208.6
31174.5
31141
31107.8
31075.1
31042.9
31011.1
30979.7
30948.9
30918.5
30888.5
30859
30829.9
30801.2
30773
30745.1
30717.6
30690.5
30663.6
30637.1
30610.9
30584.9
30559.2
30533.7
30508.4
30483.3
30458.4
30433.6
30408.9
30384.3
30359.8
30335.5
30311.1
30286.8
30262.6
30238.4
30214.2
30190
30165.7
30141.5
30117.1
30092.8
30068.3
30043.7
30019
29994.2
29969.3
29944.1
29918.8
29893.2
29867.5
29841.5
29815.2
29788.7
29762
29734.9
29707.6
29679.9
29652
29623.7
29595.2
29566.3
29537
29507.5
29477.6
29447.4
29416.8
29385.9
29354.6
29323.1
29291.1
29258.8
29226.2
29193.2
29159.9
29126.3
29092.3
29058
29023.3
28988.3
-0.614094
-0.635434
-0.656885
-0.679327
-0.703507
-0.729898
-0.75859
-0.789234
-0.821073
-0.853037
-0.883896
-0.912422
-0.937528
-0.958364
-0.974336
-0.985083
-0.990403
-0.990194
-0.984407
-0.973041
-0.956163
-0.933947
-0.906696
-0.874852
-0.83897
-0.799685
-0.757669
-0.7136
-0.668146
-0.62195
-0.575622
-0.529716
-0.484703
-0.440945
-0.398683
-0.358045
-0.319072
-0.281758
-0.246077
-0.211998
-0.179465
-0.148367
-0.118496
-0.0895206
-0.0609943
-0.0323895
-0.00316568
0.0271545
0.0589161
0.0922879
0.127251
0.163618
0.20107
0.239204
0.277565
0.315671
0.35304
0.389204
0.423747
0.456336
0.486754
0.514904
0.540804
0.564546
0.586244
0.605997
0.623865
0.639877
0.654059
0.666476
0.677248
0.686552
0.69459
0.701549
0.70756
0.712685
0.716925
0.720261
0.722693
0.724262
0.725039
0.725086
0.724386
0.722791
0.719989
0.715513
0.708791
0.699227
0.686282
0.669545
-1.02457
-1.05876
-1.09311
-1.12932
-1.16886
-1.21271
-1.26108
-1.31336
-1.36813
-1.42336
-1.47675
-1.52603
-1.56923
-1.60492
-1.63213
-1.65037
-1.65941
-1.65915
-1.64952
-1.63047
-1.60207
-1.56457
-1.51846
-1.46451
-1.40371
-1.33717
-1.26607
-1.19158
-1.1148
-1.03685
-0.95877
-0.881524
-0.80594
-0.732641
-0.662017
-0.594236
-0.529309
-0.467177
-0.407781
-0.35109
-0.297069
-0.245594
-0.196356
-0.148798
-0.102112
-0.0553171
-0.00738903
0.0425764
0.0952248
0.150855
0.209407
0.270506
0.333555
0.397823
0.462508
0.526778
0.589787
0.650712
0.708803
0.763457
0.814294
0.861177
0.904194
0.943573
0.979575
1.01239
1.04212
1.06876
1.09229
1.11279
1.13047
1.14565
1.15875
1.17015
1.18007
1.18861
1.19572
1.20128
1.20528
1.20779
1.20901
1.20913
1.20822
1.20609
1.20219
1.19567
1.18544
1.17038
1.14946
1.12195
-1.43716
-1.48185
-1.52664
-1.57448
-1.628
-1.68897
-1.75792
-1.83387
-1.91447
-1.99629
-2.07549
-2.14832
-2.21173
-2.26361
-2.30279
-2.32885
-2.34176
-2.34154
-2.32811
-2.3013
-2.26103
-2.20752
-2.14144
-2.06396
-1.97662
-1.88115
-1.77929
-1.67273
-1.56307
-1.45185
-1.34062
-1.23084
-1.12378
-1.02038
-0.92115
-0.826207
-0.735412
-0.648545
-0.565475
-0.486224
-0.410894
-0.339486
-0.271684
-0.206705
-0.143275
-0.0797632
-0.0144345
0.0542458
0.127348
0.205326
0.288002
0.374693
0.464391
0.555943
0.648151
0.739799
0.829636
0.916401
0.998901
1.07617
1.14762
1.21311
1.27291
1.32755
1.37757
1.42333
1.46491
1.50218
1.53497
1.56325
1.58734
1.60781
1.62544
1.64092
1.65464
1.66667
1.67677
1.68462
1.69006
1.69324
1.69461
1.6947
1.69387
1.69197
1.68821
1.68119
1.66909
1.64999
1.62219
1.58445
-1.8534
-1.90466
-1.95568
-2.01136
-2.07626
-2.15362
-2.24453
-2.34757
-2.45889
-2.57289
-2.68324
-2.78405
-2.87071
-2.94044
-2.9922
-3.02615
-3.04289
-3.04284
-3.02587
-2.99142
-2.93896
-2.86847
-2.78076
-2.67754
-2.56118
-2.43425
-2.29924
-2.15834
-2.01355
-1.86685
-1.72037
-1.57625
-1.43639
-1.30216
-1.17416
-1.05227
-0.935938
-0.82454
-0.717782
-0.615839
-0.519214
-0.428342
-0.343122
-0.262572
-0.184763
-0.107048
-0.0265446
0.0592931
0.152183
0.252743
0.360515
0.474232
0.592228
0.712776
0.834247
0.955058
1.07353
1.18784
1.29613
1.39686
1.48911
1.5728
1.64863
1.71774
1.78125
1.83982
1.89345
1.94161
1.98365
2.0193
2.04893
2.07361
2.09478
2.11374
2.13119
2.14706
2.16062
2.17098
2.17765
2.18088
2.18162
2.1812
2.18065
2.18014
2.17856
2.17368
2.16248
2.14182
2.10895
2.06193
-2.27624
-2.32777
-2.37795
-2.43491
-2.50652
-2.59866
-2.71361
-2.84927
-2.99937
-3.15463
-3.30466
-3.44004
-3.55396
-3.64307
-3.70717
-3.7481
-3.76811
-3.76842
-3.74868
-3.70736
-3.64275
-3.55411
-3.4423
-3.30996
-3.16084
-2.99891
-2.82758
-2.64945
-2.46666
-2.28145
-2.09664
-1.91541
-1.74081
-1.57488
-1.41828
-1.27027
-1.12928
-0.993777
-0.863084
-0.737732
-0.61919
-0.509008
-0.407788
-0.314455
-0.226081
-0.13832
-0.0463153
0.0542006
0.16598
0.289778
0.424459
0.567598
0.716368
0.86825
1.02126
1.17364
1.32338
1.46789
1.6042
1.72969
1.84285
1.94373
2.03394
2.11591
2.19197
2.26334
2.32977
2.38974
2.44145
2.48389
2.51754
2.54436
2.56719
2.5886
2.60991
2.63065
2.64894
2.66253
2.67009
2.67196
2.67019
2.66775
2.66728
2.66971
2.67358
2.67515
2.66939
2.65111
2.61598
2.56107
-2.71092
-2.75277
-2.79042
-2.83732
-2.9072
-3.01082
-3.15281
-3.33015
-3.53238
-3.74386
-3.94713
-4.12687
-4.27291
-4.38166
-4.45544
-4.50014
-4.52164
-4.5228
-4.50251
-4.45677
-4.38111
-4.27302
-4.13337
-3.96648
-3.77887
-3.57702
-3.36563
-3.14722
-2.92317
-2.69543
-2.46765
-2.24498
-2.03265
-1.83409
-1.64996
-1.47807
-1.31463
-1.15602
-1.00062
-0.849738
-0.70705
-0.576693
-0.461023
-0.359127
-0.266448
-0.175636
-0.0782712
0.0329611
0.16254
0.311216
0.476293
0.652925
0.836089
1.02217
1.20923
1.3961
1.58083
1.75978
1.92791
2.08035
2.2143
2.3301
2.43116
2.52265
2.60946
2.69404
2.77543
2.8498
2.91264
2.9612
2.99601
3.02091
3.04166
3.06365
3.08949
3.11782
3.14406
3.16282
3.17077
3.16832
3.15974
3.15152
3.14976
3.15724
3.17192
3.18724
3.19435
3.18468
3.15155
3.0907
-3.16721
-3.1838
-3.18961
-3.20668
-3.25938
-3.36781
-3.54123
-3.77525
-4.05215
-4.34499
-4.62354
-4.86229
-5.04562
-5.17065
-5.24565
-5.28565
-5.3045
-5.3081
-5.29304
-5.24928
-5.1662
-5.03738
-4.86363
-4.65284
-4.41737
-4.16885
-3.91376
-3.65306
-3.38492
-3.1094
-2.83121
-2.55957
-2.30453
-2.07243
-1.86386
-1.67356
-1.4929
-1.31346
-1.13146
-0.949743
-0.776935
-0.622996
-0.494175
-0.39027
-0.303859
-0.222107
-0.129899
-0.0143818
0.131935
0.309388
0.511855
0.729229
0.952006
1.17506
1.39787
1.62204
1.84703
2.0677
2.27466
2.45809
2.61236
2.73816
2.84264
2.93662
3.03064
3.12984
3.2317
3.32698
3.40489
3.45883
3.48927
3.50394
3.51486
3.53368
3.56597
3.60851
3.65045
3.67917
3.68691
3.674
3.64925
3.62648
3.61938
3.63486
3.66977
3.71158
3.74386
3.75242
3.72738
3.66326
-3.66329
-3.63043
-3.57264
-3.52488
-3.53145
-3.63147
-3.84261
-4.15887
-4.54925
-4.96697
-5.35754
-5.67773
-5.90255
-6.0319
-6.08649
-6.10182
-6.10949
-6.12047
-6.12507
-6.09855
-6.01731
-5.86656
-5.64735
-5.3748
-5.07471
-4.77019
-4.46996
-4.1696
-3.85726
-3.52717
-3.18522
-2.85015
-2.54323
-2.27671
-2.05124
-1.85492
-1.66913
-1.47428
-1.26155
-1.03655
-0.81923
-0.63267
-0.490951
-0.395693
-0.334
-0.283045
-0.214466
-0.105411
0.0572003
0.272293
0.526746
0.798589
1.06839
1.32922
1.58549
1.84777
2.12039
2.39638
2.65633
2.8789
3.05248
3.17804
3.27034
3.35169
3.44552
3.56299
3.69863
3.83039
3.93286
3.99155
4.00645
3.99362
3.97789
3.98556
4.02892
4.10129
4.17709
4.22693
4.23396
4.19792
4.13706
4.08
4.05759
4.08556
4.15877
4.25061
4.32852
4.36944
4.36033
4.2965
-4.23294
-4.11303
-3.94128
-3.7649
-3.66904
-3.73526
-3.9928
-4.43602
-5.00723
-5.62831
-6.19314
-6.63081
-6.8972
-7.00109
-6.98412
-6.92925
-6.90998
-6.94222
-7.00214
-7.02679
-6.96868
-6.7945
-6.508
-6.13654
-5.7385
-5.36542
-5.02636
-4.70341
-4.35512
-3.962
-3.52926
-3.1001
-2.72362
-2.42168
-2.19643
-2.02088
-1.85815
-1.66058
-1.40896
-1.11193
-0.816816
-0.577308
-0.420302
-0.352218
-0.348082
-0.368729
-0.356664
-0.272863
-0.092377
0.179304
0.517428
0.871783
1.19862
1.49095
1.76547
2.05965
2.39
2.74926
3.09297
3.37142
3.56297
3.66705
3.71508
3.75006
3.82765
3.97128
4.17247
4.37733
4.52525
4.5887
4.56499
4.48887
4.40865
4.38747
4.45151
4.59055
4.74252
4.83776
4.8444
4.75898
4.62076
4.48498
4.42459
4.47244
4.62218
4.81095
4.96761
5.0596
5.07313
5.01534
-4.93849
-4.6702
-4.31642
-3.8887
-3.57288
-3.56314
-3.87524
-4.52848
-5.39305
-6.3703
-7.21154
-7.8302
-8.12554
-8.14398
-7.936
-7.70509
-7.63601
-7.72378
-7.9297
-8.07393
-8.08694
-7.88391
-7.49077
-6.93634
-6.36614
-5.91146
-5.55937
-5.27348
-4.91734
-4.45371
-3.86799
-3.27407
-2.79654
-2.45612
-2.26997
-2.16829
-2.09728
-1.92468
-1.62181
-1.1846
-0.734438
-0.403271
-0.221739
-0.216795
-0.326651
-0.501731
-0.60243
-0.579854
-0.373653
-0.00977213
0.484293
0.984149
1.37805
1.67785
1.91667
2.21892
2.61746
3.12393
3.62301
3.98845
4.19879
4.23615
4.17797
4.0864
4.114
4.29599
4.6403
5.0055
5.23852
5.31062
5.19825
4.98926
4.75365
4.66588
4.76536
5.06043
5.38889
5.57544
5.58669
5.39535
5.10024
4.78074
4.63507
4.71194
5.02881
5.41692
5.69926
5.86213
5.888
5.85319
-5.89683
-5.35013
-4.79754
-3.8507
-3.03504
-2.92649
-3.26523
-4.31536
-5.61535
-7.30685
-8.54917
-9.49391
-9.75135
-9.61166
-8.9197
-8.24669
-8.13501
-8.33409
-8.945
-9.30897
-9.51527
-9.24611
-8.70493
-7.75801
-6.82666
-6.30908
-5.99641
-5.94416
-5.63385
-5.12078
-4.2182
-3.28018
-2.67191
-2.26836
-2.22189
-2.2717
-2.48295
-2.37676
-2.0286
-1.27659
-0.481493
-0.0147112
0.230026
0.0827525
-0.212624
-0.743302
-1.02735
-1.15305
-0.883968
-0.388454
0.440511
1.24665
1.69041
1.94985
1.97374
2.23665
2.68648
3.50614
4.34225
4.82545
5.08027
4.93929
4.68535
4.24743
4.17425
4.38309
5.0741
5.82002
6.17942
6.29405
5.96653
5.52379
4.88161
4.67045
4.7934
5.47806
6.23548
6.56142
6.61665
6.17709
5.61087
4.82228
4.52125
4.60209
5.32918
6.17164
6.59948
6.8586
6.78698
6.85999
-7.36311
-6.03797
-5.84595
-3.62367
-1.47904
-1.64588
-1.63092
-3.74257
-5.27398
-8.89034
-10.3154
-12.1474
-11.9491
-11.8747
-9.8762
-7.98004
-8.18659
-8.35146
-10.316
-10.7712
-11.6284
-11.0001
-10.5034
-8.55725
-6.69131
-6.4116
-6.05845
-6.98647
-6.6423
-6.34871
-4.6193
-2.8113
-2.25233
-1.56625
-2.03505
-2.14252
-3.32562
-3.17715
-3.01671
-1.43034
0.244577
0.69395
1.24658
0.595849
0.240495
-1.33976
-1.68
-2.29437
-1.71994
-1.24683
0.430128
2.03154
2.26877
2.56156
1.68716
1.98577
2.22356
3.86533
5.57041
5.99205
6.53239
5.80576
5.45836
3.88394
3.82912
3.77664
5.42962
7.19194
7.47365
7.91498
6.90157
6.34636
4.38975
4.19479
4.01343
5.79176
7.70422
7.93809
8.35997
7.14213
6.44263
4.16264
3.85847
3.56248
5.46423
7.52418
7.7434
8.33214
7.47862
8.1692
-10.2521
-5.094
-9.81769
-3.28463
3.40557
-0.627077
3.06567
-4.00539
-1.93035
-13.6294
-11.4957
-17.7247
-13.9687
-16.9085
-10.6853
-4.68558
-8.29826
-5.77738
-13.8606
-11.6545
-15.8806
-12.5645
-14.3891
-9.24099
-4.27179
-6.61985
-4.27552
-9.86074
-7.57785
-9.6442
-5.13345
-0.543693
-2.01564
0.799071
-2.36839
-0.464263
-6.08565
-3.99458
-6.05799
-1.71134
2.7357
1.25422
3.99637
0.68388
2.4578
-3.72158
-1.93756
-5.14732
-2.40962
-3.83837
0.529009
4.78133
2.76764
4.8546
-0.288052
1.82302
-0.260556
4.13396
8.64734
6.9884
9.80968
6.1268
7.999
1.33286
3.48135
0.715024
5.62842
10.6967
8.5388
11.6315
7.1776
9.18777
1.36193
3.70033
0.412373
5.91312
11.591
9.04487
12.4653
7.36165
9.55113
0.658751
3.18475
-0.640976
5.37232
11.5282
8.35606
11.8833
5.94769
10.5112
-20.2305
10.0798
-29.9991
-3.17155
23.7316
-10.7323
23.2627
-17.438
21.2486
-38.287
-0.633102
-37.6797
-6.34561
-35.1365
-11.1722
12.4514
-17.2417
12.0672
-32.2211
-3.27473
-30.9933
-6.72598
-28.315
-9.66663
8.68506
-13.5847
8.92646
-24.0647
-2.25009
-22.4105
-5.76105
10.4531
-7.95149
11.779
-10.0046
12.051
-19.9516
1.17055
-18.3299
-2.13699
13.7638
-4.26774
15.4647
-6.55282
16.1276
-17.5712
4.99549
-16.5653
2.89973
-14.7772
0.792768
16.5534
-2.63935
17.5574
-12.7097
7.69961
-12.0743
4.2303
20.6113
1.532
22.4518
-1.55279
22.8336
-13.9127
10.2095
-13.4069
5.60271
24.6056
2.04149
26.2137
-1.85627
26.1914
-16.304
11.3062
-15.846
5.7778
27.3186
1.55824
28.8436
-2.92247
28.6159
-19.2891
11.656
-19.0139
5.07374
28.9631
-0.67962
29.0598
-10.7033
19.417
28949.5
28906.7
28863.5
28819.9
28775.9
28731.6
28687
28642.1
28596.9
28551.6
28506.1
28460.4
28414.7
28368.8
28322.9
0.646716
0.616069
0.580096
0.539561
0.495443
0.448787
0.400587
0.351697
0.302782
0.254304
0.206528
0.159552
0.113334
0.0677315
0.02253
1.08398
1.03249
0.971723
0.903114
0.828445
0.749599
0.668329
0.586118
0.504094
0.423012
0.34329
0.265054
0.188199
0.112445
0.0373998
1.5313
1.45815
1.37117
1.2727
1.1656
1.05281
0.936998
0.820346
0.704458
0.590361
0.47857
0.369179
0.261962
0.156452
0.0520263
1.9936
1.89746
1.78195
1.65077
1.50831
1.35892
1.2064
1.05373
0.902972
0.755361
0.611421
0.471118
0.334011
0.199371
0.0662807
2.47739
2.35606
2.20833
2.04003
1.85783
1.66805
1.47588
1.28513
1.09828
0.916642
0.740595
0.569833
0.403577
0.240732
0.0800051
2.99124
2.84104
2.65524
2.44314
2.21486
1.97945
1.74379
1.51252
1.2883
1.07228
0.864439
0.664009
0.469712
0.279965
0.0930089
3.54699
3.36181
3.12857
2.86249
2.57905
2.29102
2.00718
1.73272
1.47004
1.21966
0.980822
0.752015
0.531271
0.316393
0.105069
4.16163
3.93111
3.63516
3.29953
2.94811
2.59848
2.26113
1.94098
1.63934
1.35539
1.08711
0.831909
0.586932
0.349251
0.115934
4.86034
4.56645
4.18199
3.75292
3.31599
2.8941
2.49801
2.13068
1.79085
1.47533
1.18024
0.901518
0.635259
0.377721
0.12534
5.68337
5.29201
4.77318
4.2141
3.66933
3.16446
2.70647
2.29298
1.918
1.57478
1.25689
0.958599
0.674816
0.401007
0.13303
6.71011
6.14312
5.40299
4.65937
3.9823
3.38814
2.87068
2.41686
2.01338
1.64881
1.31388
1.00111
0.70435
0.418434
0.138793
8.14106
7.16798
6.03694
5.03685
4.21156
3.53499
2.97135
2.49047
2.06983
1.69316
1.34865
1.02753
0.723003
0.429563
0.142495
10.5153
8.35071
6.54164
5.2396
4.29181
3.56887
2.9893
2.50386
2.08227
1.70527
1.35996
1.0373
0.730523
0.434297
0.144111
15.0574
9.17656
6.5388
5.08779
4.14706
3.45948
2.91323
2.45338
2.05008
1.68559
1.34855
1.0311
0.727445
0.432964
0.14375
-0.141487
-0.426327
-0.716876
-1.01729
-1.33234
-1.66779
-2.03103
-2.43219
-2.88606
-3.41607
-4.06286
-4.90563
-6.12112
-8.16669
-12.4015
-0.13818
-0.416111
-0.698823
-0.989706
-1.29248
-1.61139
-1.95142
-2.31855
-2.7201
-3.16455
-3.65963
-4.20218
-4.73165
-4.91645
-3.13904
-0.133774
-0.402558
-0.675063
-0.953812
-1.24137
-1.54028
-1.85291
-2.18098
-2.52432
-2.87782
-3.22329
-3.50755
-3.58152
-3.02897
-0.712725
-0.128505
-0.386403
-0.646937
-0.911758
-1.1823
-1.45957
-1.74363
-2.03276
-2.32148
-2.59664
-2.82926
-2.95863
-2.86663
-2.36586
-1.37891
-0.122614
-0.3684
-0.615801
-0.865682
-1.11852
-1.37406
-1.63078
-1.8848
-2.12806
-2.34498
-2.50675
-2.56306
-2.43588
-2.04007
-1.41691
-0.11633
-0.349257
-0.582911
-0.817506
-1.05278
-1.28767
-1.51972
-1.74425
-1.95293
-2.13163
-2.25736
-2.29455
-2.19175
-1.87196
-1.13209
-0.109854
-0.32959
-0.549334
-0.768808
-0.987261
-1.20317
-1.4138
-1.61465
-1.79861
-1.9551
-2.06938
-2.12299
-2.0983
-1.99542
-1.90577
-0.103351
-0.3099
-0.515914
-0.720775
-0.923449
-1.12226
-1.3146
-1.4967
-1.66331
-1.80789
-1.92348
-2.00561
-2.05908
-2.10953
-2.20133
-0.0969491
-0.290564
-0.483264
-0.67422
-0.862266
-1.04576
-1.22245
-1.38942
-1.54327
-1.68078
-1.80076
-1.90798
-2.02184
-2.19478
-2.55528
-0.0907387
-0.271847
-0.451796
-0.629642
-0.804192
-0.973924
-1.13696
-1.29117
-1.43449
-1.56581
-1.68684
-1.8056
-1.94346
-2.14962
-2.54017
-0.0847795
-0.253919
-0.421761
-0.587313
-0.74941
-0.906672
-1.05754
-1.20041
-1.33396
-1.45794
-1.5744
-1.68982
-1.81753
-1.97625
-2.15585
-0.0791066
-0.236876
-0.393288
-0.547344
-0.69793
-0.843799
-0.983608
-1.11604
-1.24002
-1.35521
-1.46259
-1.56534
-1.66997
-1.7882
-1.9468
-0.0737367
-0.220762
-0.366422
-0.509744
-0.649674
-0.785071
-0.914732
-1.03745
-1.15213
-1.25785
-1.35388
-1.43939
-1.51289
-1.57195
-1.6081
-0.068673
-0.205579
-0.341152
-0.47446
-0.604513
-0.730264
-0.850606
-0.964392
-1.0704
-1.16715
-1.25238
-1.32161
-1.36575
-1.37143
-1.36051
-0.0639096
-0.191307
-0.317428
-0.441395
-0.562289
-0.679149
-0.790966
-0.896667
-0.995029
-1.0844
-1.16189
-1.22109
-1.24525
-1.1823
-0.827466
-0.0594341
-0.177904
-0.295174
-0.410425
-0.522814
-0.631473
-0.735504
-0.833972
-0.925846
-1.00985
-1.08402
-1.14475
-1.18516
-1.19574
-1.1972
-0.0552297
-0.165319
-0.274294
-0.381402
-0.485878
-0.586948
-0.683838
-0.775786
-0.862071
-0.942068
-1.01539
-1.08238
-1.14572
-1.21535
-1.31573
-0.0512771
-0.153491
-0.254683
-0.354168
-0.451257
-0.545266
-0.635535
-0.721464
-0.802603
-0.878869
-0.951088
-1.02237
-1.10179
-1.21347
-1.41638
-0.0475554
-0.142357
-0.236231
-0.328558
-0.418723
-0.506121
-0.590179
-0.670399
-0.746456
-0.818428
-0.887353
-0.95659
-1.03536
-1.14808
-1.36162
-0.0440431
-0.131851
-0.218826
-0.304413
-0.388062
-0.469236
-0.547422
-0.622157
-0.693082
-0.760043
-0.823315
-0.884051
-0.945244
-1.01253
-1.08278
-0.0407187
-0.121909
-0.202358
-0.281574
-0.35907
-0.434367
-0.506995
-0.576496
-0.642399
-0.70416
-0.760945
-0.811055
-0.85082
-0.874784
-0.898842
-0.0375609
-0.112465
-0.186719
-0.259892
-0.331557
-0.401293
-0.468678
-0.533269
-0.594533
-0.651672
-0.703117
-0.745095
-0.767306
-0.736828
-0.522281
-0.0345489
-0.103459
-0.171806
-0.239219
-0.305335
-0.369794
-0.432239
-0.492289
-0.549476
-0.603087
-0.651772
-0.692715
-0.720323
-0.726573
-0.72206
-0.0316626
-0.0948277
-0.157515
-0.219411
-0.280215
-0.339637
-0.3974
-0.453235
-0.506851
-0.557874
-0.605721
-0.64945
-0.688102
-0.723653
-0.771921
-0.0288825
-0.0865139
-0.143747
-0.200326
-0.256008
-0.310574
-0.363838
-0.41566
-0.465972
-0.514819
-0.562455
-0.609569
-0.65794
-0.71178
-0.777766
-0.0261904
-0.078462
-0.130409
-0.181828
-0.23253
-0.28236
-0.331215
-0.379072
-0.426055
-0.472557
-0.519482
-0.568696
-0.623884
-0.69134
-0.776181
-0.0235693
-0.0706208
-0.117415
-0.163791
-0.209611
-0.25477
-0.299224
-0.343028
-0.386414
-0.429951
-0.47484
-0.52355
-0.581214
-0.65869
-0.778054
-0.0210039
-0.0629442
-0.104686
-0.146107
-0.187107
-0.227617
-0.267626
-0.307213
-0.346614
-0.386349
-0.427462
-0.472053
-0.524698
-0.596803
-0.722201
-0.0184808
-0.0553919
-0.092155
-0.128681
-0.164898
-0.20076
-0.236264
-0.271469
-0.306529
-0.341738
-0.377586
-0.414828
-0.454584
-0.497771
-0.535238
-0.0159881
-0.0479288
-0.0797655
-0.111436
-0.142892
-0.1741
-0.205054
-0.235771
-0.26629
-0.296632
-0.32666
-0.355725
-0.382024
-0.40258
-0.423735
-0.0135156
-0.0405245
-0.0674682
-0.0943087
-0.121015
-0.147567
-0.173952
-0.200155
-0.226128
-0.251698
-0.276324
-0.298412
-0.313399
-0.306851
-0.221502
-0.0110542
-0.0331522
-0.0552202
-0.0772415
-0.0992043
-0.121101
-0.142922
-0.164646
-0.186198
-0.207378
-0.227674
-0.245899
-0.259682
-0.265738
-0.26759
-0.00859588
-0.0257881
-0.0429826
-0.0601836
-0.0773985
-0.094637
-0.111907
-0.129202
-0.146483
-0.163632
-0.180396
-0.196349
-0.211275
-0.227428
-0.258043
-0.00613304
-0.0184097
-0.0307191
-0.0430854
-0.0555364
-0.0681035
-0.08082
-0.0937166
-0.106813
-0.120115
-0.133619
-0.147392
-0.161938
-0.178975
-0.19957
-0.00365879
-0.0109964
-0.018395
-0.0258984
-0.0335549
-0.0414196
-0.0495561
-0.0580386
-0.066955
-0.0764192
-0.0865995
-0.0977996
-0.110795
-0.127944
-0.157165
-0.00116666
-0.00352863
-0.00597777
-0.00857585
-0.011391
-0.0145016
-0.0180014
-0.0220072
-0.0266683
-0.0321827
-0.0388088
-0.0468586
-0.0566919
-0.0684168
-0.0779202
0.00134921
0.00401127
0.00656284
0.00892594
0.0110148
0.0127306
0.0139531
0.0145292
0.0142574
0.0128706
0.010038
0.00542739
-0.00120436
-0.0103173
-0.0266459
0.0038941
0.0116392
0.0192538
0.0266459
0.0337156
0.040348
0.0464033
0.0517016
0.0560011
0.058971
0.0601868
0.0592253
0.0560713
0.0529028
0.0631295
0.00647254
0.019369
0.032118
0.0446169
0.0567552
0.0684077
0.0794244
0.0896129
0.0987088
0.10633
0.111913
0.114651
0.113408
0.106922
0.0977347
0.00908834
0.0272118
0.0451742
0.0628648
0.0801662
0.0969495
0.113065
0.128327
0.14248
0.15514
0.165677
0.172946
0.174426
0.162915
0.111745
0.0117446
0.0351768
0.058437
0.0814085
0.10397
0.125995
0.147342
0.167853
0.187324
0.205459
0.221771
0.235363
0.244503
0.246531
0.245462
0.0144438
0.0432713
0.0719177
0.100262
0.12818
0.155548
0.182243
0.208143
0.23313
0.257076
0.279805
0.300966
0.319563
0.332387
0.327564
0.0171881
0.0515013
0.0856254
0.119434
0.152802
0.185607
0.217738
0.24911
0.279695
0.309566
0.338977
0.368443
0.398691
0.430574
0.469477
0.0199792
0.0598722
0.0995685
0.138937
0.177846
0.216171
0.2538
0.290665
0.326791
0.362407
0.398155
0.435452
0.476743
0.523967
0.565007
0.0228189
0.068389
0.113755
0.15878
0.203325
0.247252
0.290432
0.332774
0.37428
0.415188
0.456305
0.499766
0.550731
0.621739
0.748319
0.0257086
0.0770562
0.128194
0.178979
0.229261
0.278884
0.327684
0.375502
0.422219
0.467858
0.512879
0.55895
0.610855
0.681008
0.798794
0.0286493
0.0858777
0.142893
0.199548
0.255683
0.311121
0.365654
0.419032
0.47094
0.52099
0.568776
0.614165
0.658356
0.70728
0.780426
0.0316417
0.0948553
0.157858
0.220499
0.282616
0.344017
0.404461
0.463616
0.520981
0.575725
0.626385
0.670291
0.70261
0.716808
0.726143
0.0346851
0.103988
0.173086
0.241834
0.310071
0.377608
0.444195
0.509477
0.572872
0.633323
0.688733
0.734542
0.759478
0.729785
0.516238
0.0377779
0.11327
0.18857
0.263543
0.338039
0.411887
0.484869
0.556681
0.626834
0.694448
0.757792
0.813366
0.854309
0.8705
0.875064
0.0409173
0.122694
0.204296
0.285601
0.366481
0.446796
0.526387
0.605068
0.682587
0.758559
0.832286
0.902423
0.966361
1.01936
1.05003
0.0440992
0.132246
0.220239
0.307972
0.395338
0.482234
0.568569
0.654291
0.739441
0.82425
0.90931
0.995851
1.08606
1.18377
1.30229
0.0473189
0.141913
0.236374
0.330614
0.424545
0.518089
0.611205
0.703941
0.796559
0.889788
0.985338
1.08679
1.20058
1.3338
1.46817
0.0505714
0.151678
0.252675
0.353487
0.45404
0.554267
0.654134
0.753703
0.853278
0.953738
1.0573
1.16923
1.30165
1.48308
1.78909
0.0538512
0.161526
0.269115
0.376557
0.483782
0.590718
0.697296
0.803489
0.909408
1.01556
1.12349
1.23748
1.36873
1.54592
1.84134
0.0571524
0.171439
0.285667
0.399791
0.513745
0.627441
0.740751
0.85349
0.965401
1.07616
1.18551
1.29382
1.40393
1.52673
1.69011
0.0604681
0.181398
0.302303
0.423156
0.543905
0.664454
0.784626
0.904089
1.02221
1.13776
1.2483
1.34895
1.43034
1.4794
1.52337
0.0637904
0.191378
0.318984
0.446608
0.574221
0.701749
0.829015
0.955642
1.08083
1.20287
1.31799
1.41751
1.47922
1.43568
1.02659
0.0671093
0.201352
0.335663
0.470078
0.604614
0.739246
0.87387
1.00821
1.14165
1.27279
1.39855
1.51238
1.60122
1.64584
1.67154
0.0704133
0.211282
0.352277
0.493477
0.634955
0.776766
0.918939
1.06144
1.20409
1.34645
1.48741
1.62466
1.75395
1.86919
1.96109
0.0736893
0.22113
0.368756
0.516694
0.665078
0.814053
0.9638
1.11457
1.26676
1.42109
1.57886
1.74253
1.91646
2.10879
2.34336
0.0769239
0.230852
0.385025
0.539613
0.694803
0.850821
1.00797
1.16673
1.32796
1.49335
1.66625
1.85329
2.06621
2.31911
2.58816
0.0801036
0.240409
0.401012
0.562122
0.723967
0.886817
1.05104
1.21719
1.38629
1.5604
1.74385
1.94612
2.18822
2.51825
3.05947
0.083216
0.249762
0.416654
0.584129
0.752442
0.921877
1.09278
1.26561
1.44117
1.62097
1.80839
2.01133
2.24921
2.57075
3.10137
0.0862502
0.258879
0.431895
0.605561
0.780148
0.955931
1.13318
1.31216
1.4931
1.67627
1.86216
2.05232
2.2521
2.47811
2.76471
0.0891961
0.267729
0.446688
0.62636
0.807033
0.988977
1.1724
1.35735
1.5435
1.72969
1.91298
2.08665
2.23681
2.34343
2.45047
0.0920445
0.276287
0.46099
0.64647
0.833042
1.021
1.21057
1.40172
1.59387
1.78514
1.97051
2.13734
2.25174
2.20849
1.59754
0.0947874
0.284525
0.474756
0.665824
0.858093
1.05192
1.24764
1.44539
1.64487
1.84467
2.04093
2.22445
2.37617
2.46779
2.53917
0.0974177
0.292422
0.487941
0.68435
0.882062
1.08154
1.28331
1.48787
1.69564
1.90668
2.12019
2.33368
2.54233
2.74118
2.9309
0.099931
0.299961
0.500511
0.701971
0.904805
1.10958
1.31703
1.52812
1.74414
1.96697
2.19947
2.44629
2.71531
3.02092
3.39898
0.102327
0.307141
0.512449
0.71864
0.926198
1.13577
1.34824
1.56494
1.7879
2.02054
2.26882
2.54348
2.86287
3.25036
3.68483
0.104613
0.313977
0.523773
0.734358
0.946195
1.15993
1.37652
1.59741
1.82495
2.06325
2.31985
2.60962
2.96314
3.44717
4.22462
0.106802
0.320511
0.53455
0.749204
0.96487
1.18212
1.40181
1.62525
1.85454
2.09323
2.34785
2.63147
2.97279
3.44022
4.21155
0.108919
0.326815
0.544896
0.763345
0.982441
1.20261
1.42449
1.64902
1.87758
2.11215
2.3557
2.61326
2.89484
3.22221
3.62324
0.110997
0.332987
0.554983
0.777034
0.999262
1.2219
1.44531
1.66999
1.89645
2.12481
2.35382
2.57836
2.78509
2.95306
3.14203
0.113075
0.339153
0.565028
0.790593
1.01579
1.24064
1.46524
1.68971
1.91397
2.13703
2.35502
2.55583
2.70225
2.6693
1.95231
0.115201
0.345457
0.575282
0.804399
1.03256
1.25956
1.48526
1.70957
1.93232
2.15273
2.36815
2.57104
2.74395
2.86055
2.97623
0.117426
0.352057
0.586021
0.818861
1.05012
1.27935
1.50621
1.7305
1.95228
2.1719
2.38995
2.60705
2.82474
3.05242
3.33136
0.119803
0.359116
0.597534
0.834413
1.06907
1.30079
1.52894
1.75316
1.97371
2.19214
2.41238
2.64263
2.89854
3.20868
3.62431
0.122383
0.366793
0.610106
0.851499
1.09004
1.32468
1.55438
1.77834
1.99659
2.21109
2.42784
2.66035
2.93467
3.29162
3.75823
0.125208
0.375226
0.624001
0.870554
1.1137
1.35199
1.58378
1.80747
2.02204
2.22846
2.43232
2.649
2.91336
3.29837
3.95451
0.128308
0.384516
0.639429
0.891962
1.1407
1.38378
1.61879
1.84289
2.05313
2.24759
2.42786
2.60448
2.80824
3.11678
3.73946
0.131691
0.394697
0.656495
0.915987
1.17162
1.42113
1.66135
1.88791
2.09516
2.27653
2.4259
2.54107
2.63032
2.71697
2.79114
0.13533
0.405709
0.675148
0.942674
1.20675
1.46491
1.71336
1.94629
2.15512
2.32766
2.44764
2.49561
2.45415
2.32579
2.21621
0.139161
0.417364
0.695111
0.971733
1.24594
1.5154
1.7761
2.02135
2.24023
2.41527
2.51934
2.51221
2.33832
1.9215
1.08857
0.14307
0.429325
0.715835
1.00244
1.28839
1.57192
1.84952
2.11468
2.35574
2.55213
2.66822
2.64455
2.39115
1.8061
0.894379
0.146894
0.441095
0.736471
1.03356
1.33248
1.63252
1.93153
2.2247
2.50224
2.74474
2.91413
2.93637
2.67428
1.91748
0.60057
0.150426
0.452036
0.755891
1.06339
1.37574
1.69376
2.01752
2.34553
2.67303
2.98812
3.26221
3.42559
3.30089
2.41771
-0.482308
0.153428
0.461402
0.772754
1.08981
1.41501
1.75097
2.10051
2.46665
2.85243
3.25998
3.68719
4.11481
4.45411
4.31836
1.96127
0.155649
0.468408
0.785628
1.11053
1.44675
1.79867
2.17189
2.57409
3.01668
3.5182
4.11195
4.86539
5.93698
7.76104
11.7027
11.4449
7.3935
5.56963
4.52305
3.80089
3.23961
2.77024
2.35908
1.98751
1.64414
1.32135
1.01365
0.716794
0.427253
0.141955
1.31296
3.83303
4.03794
3.7453
3.35749
2.96713
2.59458
2.24238
1.9086
1.59038
1.28485
0.98934
0.701405
0.41876
0.139242
-1.20139
1.88036
2.85161
3.03347
2.91579
2.68226
2.40479
2.11286
1.81883
1.52775
1.24133
0.959731
0.682317
0.408078
0.135805
0.019923
1.39316
2.21335
2.52953
2.55451
2.42788
2.22502
1.98476
1.72698
1.46183
1.19443
0.927175
0.660997
0.396017
0.131902
0.315227
1.2899
1.92498
2.22773
2.29848
2.22644
2.0712
1.86879
1.64019
1.39744
1.14738
0.893833
0.638821
0.383339
0.127778
0.646868
1.42237
1.86734
2.08697
2.14156
2.08276
1.95012
1.77096
1.56317
1.33806
1.10272
0.861472
0.616948
0.370701
0.123645
1.61378
1.78427
1.96612
2.06075
2.06334
1.99034
1.8613
1.69298
1.49812
1.28576
1.06211
0.831357
0.596251
0.358613
0.119671
2.12346
2.13823
2.12541
2.0984
2.03756
1.93681
1.79972
1.63341
1.44518
1.24124
1.02641
0.804236
0.577294
0.347421
0.115972
2.99196
2.5113
2.2945
2.15948
2.03946
1.90847
1.7584
1.58901
1.40312
1.20426
0.995768
0.780406
0.560357
0.337313
0.112614
3.21573
2.70106
2.40674
2.21009
2.04894
1.89336
1.73047
1.55605
1.37002
1.17394
0.969874
0.759811
0.545484
0.328346
0.10962
3.12919
2.73775
2.4511
2.23598
2.05451
1.8833
1.7105
1.53113
1.34386
1.14914
0.948121
0.742157
0.53255
0.320475
0.10698
3.05204
2.70162