/*--------------------------------*- C++ -*----------------------------------*\
| =========                 |                                                 |
| \\      /  F ield         | OpenFOAM: The Open Source CFD Toolbox           |
|  \\    /   O peration     | Version:  5.x                                   |
|   \\  /    A nd           | Web:      www.OpenFOAM.org                      |
|    \\/     M anipulation  |                                                 |
\*---------------------------------------------------------------------------*/
FoamFile
{
    version     2.0;
    format      ascii;
    class       volScalarField;
    location    "0.7";
    object      gradTy;
}
// * * * * * * * * * * * * * * * * * * * * * * * * * * * * * * * * * * * * * //

dimensions      [0 -1 0 1 0 0 0];

internalField   nonuniform List<scalar> 
2048
(
-25.2928
-25.2629
-25.2044
-25.1197
-25.0121
-24.8856
-24.7443
-24.5924
-24.4339
-24.2723
-24.1108
-23.9519
-23.7977
-23.6498
-23.5094
-23.3772
-23.2538
-23.1394
-23.0341
-22.9376
-22.85
-22.7709
-22.7001
-22.6373
-22.5823
-22.5349
-22.4947
-22.4618
-22.4358
-22.4168
-22.4047
-22.3995
-22.4013
-22.4103
-22.4265
-22.4503
-22.482
-22.522
-22.5707
-22.6286
-22.6962
-22.7742
-22.8631
-22.9635
-23.076
-23.201
-23.3389
-23.49
-23.6542
-23.8312
-24.0204
-24.2205
-24.4299
-24.6462
-24.8664
-25.0868
-25.303
-25.5098
-25.702
-25.8736
-26.0193
-26.1337
-26.2125
-26.2528
-25.3161
-25.2852
-25.2247
-25.1373
-25.0266
-24.8966
-24.7519
-24.5968
-24.4353
-24.2712
-24.1076
-23.947
-23.7915
-23.6426
-23.5015
-23.369
-23.2454
-23.1309
-23.0256
-22.9293
-22.8418
-22.7629
-22.6923
-22.6298
-22.5749
-22.5276
-22.4876
-22.4547
-22.4288
-22.4099
-22.3977
-22.3925
-22.3942
-22.403
-22.419
-22.4426
-22.474
-22.5136
-22.5619
-22.6193
-22.6865
-22.764
-22.8525
-22.9525
-23.0645
-23.1893
-23.3271
-23.4782
-23.6426
-23.8202
-24.0104
-24.2119
-24.4232
-24.642
-24.8652
-25.0892
-25.3094
-25.5208
-25.7175
-25.8938
-26.0436
-26.1615
-26.2428
-26.2844
-25.3609
-25.328
-25.2636
-25.171
-25.054
-24.9174
-24.7661
-24.6048
-24.4379
-24.2689
-24.1013
-23.9375
-23.7795
-23.6288
-23.4865
-23.3532
-23.2293
-23.1147
-23.0095
-22.9135
-22.8264
-22.7478
-22.6776
-22.6154
-22.5609
-22.5139
-22.4741
-22.4414
-22.4157
-22.3967
-22.3846
-22.3792
-22.3807
-22.3892
-22.4049
-22.4279
-22.4588
-22.4977
-22.5452
-22.6019
-22.6682
-22.7448
-22.8323
-22.9315
-23.0428
-23.167
-23.3044
-23.4556
-23.6205
-23.7991
-23.991
-24.1952
-24.4101
-24.6335
-24.8625
-25.0933
-25.3214
-25.5413
-25.747
-25.9321
-26.0901
-26.2148
-26.3011
-26.3452
-25.4258
-25.3898
-25.3197
-25.2192
-25.093
-24.9467
-24.7859
-24.6157
-24.4407
-24.265
-24.0918
-23.9235
-23.7621
-23.609
-23.465
-23.3307
-23.2063
-23.0917
-22.9868
-22.8912
-22.8045
-22.7265
-22.6569
-22.5952
-22.5412
-22.4946
-22.4552
-22.4228
-22.3972
-22.3783
-22.3661
-22.3606
-22.3618
-22.3699
-22.385
-22.4074
-22.4374
-22.4754
-22.5218
-22.5773
-22.6423
-22.7177
-22.8039
-22.9018
-23.0121
-23.1354
-23.2723
-23.4233
-23.5888
-23.7688
-23.9631
-24.1708
-24.3907
-24.6206
-24.8578
-25.0984
-25.3377
-25.57
-25.7887
-25.9868
-26.1567
-26.2915
-26.3851
-26.4331
-25.51
-25.4698
-25.3918
-25.2807
-25.1424
-24.9833
-24.81
-24.6283
-24.4432
-24.2589
-24.0787
-23.9049
-23.7393
-23.5833
-23.4374
-23.302
-23.1772
-23.0627
-22.9582
-22.8631
-22.7772
-22.6999
-22.631
-22.57
-22.5166
-22.4706
-22.4316
-22.3996
-22.3742
-22.3554
-22.3431
-22.3374
-22.3383
-22.3459
-22.3603
-22.3818
-22.4108
-22.4476
-22.4927
-22.5466
-22.6101
-22.6837
-22.7683
-22.8646
-22.9735
-23.0955
-23.2316
-23.3824
-23.5483
-23.7298
-23.9269
-24.1389
-24.3649
-24.6029
-24.8503
-25.1032
-25.3568
-25.6051
-25.8409
-26.056
-26.2419
-26.3902
-26.4936
-26.5468
-25.613
-25.5674
-25.4794
-25.3547
-25.2009
-25.0258
-24.8372
-24.6416
-24.4444
-24.2501
-24.0617
-23.8815
-23.7113
-23.552
-23.4041
-23.2677
-23.1426
-23.0284
-22.9244
-22.8301
-22.7451
-22.6687
-22.6007
-22.5405
-22.4879
-22.4425
-22.4041
-22.3725
-22.3474
-22.3287
-22.3164
-22.3104
-22.3109
-22.3179
-22.3316
-22.3521
-22.3799
-22.4152
-22.4587
-22.5108
-22.5723
-22.644
-22.7266
-22.8209
-22.9279
-23.0484
-23.1833
-23.3335
-23.4998
-23.6827
-23.8827
-24.0996
-24.3325
-24.5798
-24.8391
-25.1067
-25.3776
-25.6454
-25.9021
-26.1385
-26.3445
-26.5099
-26.6258
-26.6855
-25.7351
-25.6826
-25.5818
-25.4403
-25.2675
-25.0731
-24.8663
-24.6544
-24.4435
-24.2378
-24.0404
-23.8533
-23.678
-23.5153
-23.3654
-23.2281
-23.103
-22.9892
-22.8861
-22.7929
-22.709
-22.6337
-22.5666
-22.5074
-22.4557
-22.4111
-22.3734
-22.3422
-22.3174
-22.2989
-22.2865
-22.2803
-22.2804
-22.2867
-22.2995
-22.3189
-22.3453
-22.3791
-22.4207
-22.4707
-22.53
-22.5993
-22.6795
-22.7715
-22.8763
-22.9948
-23.1282
-23.2774
-23.4437
-23.6279
-23.8309
-24.0527
-24.2931
-24.5507
-24.8234
-25.1076
-25.3984
-25.689
-25.9708
-26.2329
-26.4633
-26.6498
-26.7812
-26.8491
-25.8766
-25.8155
-25.699
-25.5368
-25.341
-25.1238
-24.8959
-24.6658
-24.4396
-24.2215
-24.0144
-23.82
-23.6395
-23.4734
-23.3216
-23.1837
-23.0588
-22.946
-22.844
-22.7521
-22.6694
-22.5954
-22.5295
-22.4714
-22.4207
-22.377
-22.34
-22.3093
-22.2849
-22.2665
-22.2541
-22.2477
-22.2472
-22.2529
-22.2648
-22.283
-22.3079
-22.3399
-22.3794
-22.4271
-22.4838
-22.5504
-22.6279
-22.7173
-22.8195
-22.9357
-23.067
-23.2149
-23.3806
-23.5657
-23.7714
-23.9983
-24.2465
-24.515
-24.8022
-25.1046
-25.4177
-25.7345
-26.0454
-26.3379
-26.5977
-26.8097
-26.9599
-27.0379
-26.0384
-25.9667
-25.8307
-25.6434
-25.4204
-25.1766
-24.9248
-24.6744
-24.4317
-24.2005
-23.9833
-23.7814
-23.5957
-23.4263
-23.273
-23.1348
-23.0106
-22.899
-22.7986
-22.7083
-22.6271
-22.5544
-22.4898
-22.4329
-22.3833
-22.3406
-22.3044
-22.2744
-22.2504
-22.2321
-22.2197
-22.213
-22.2121
-22.217
-22.2279
-22.2449
-22.2682
-22.2982
-22.3354
-22.3806
-22.4345
-22.4981
-22.5726
-22.6589
-22.7582
-22.8717
-23.0005
-23.1464
-23.3111
-23.4965
-23.7045
-23.9362
-24.1922
-24.4721
-24.7745
-25.0966
-25.4341
-25.7802
-26.1243
-26.4523
-26.7469
-26.9894
-27.1623
-27.2523
-26.2217
-26.1368
-25.977
-25.7594
-25.5042
-25.2299
-24.9514
-24.679
-24.419
-24.1744
-23.9469
-23.7375
-23.5466
-23.3742
-23.2197
-23.0818
-22.9589
-22.849
-22.7505
-22.662
-22.5824
-22.5113
-22.448
-22.3924
-22.3441
-22.3025
-22.2672
-22.2379
-22.2143
-22.1962
-22.1837
-22.1768
-22.1754
-22.1796
-22.1895
-22.2052
-22.2268
-22.2548
-22.2895
-22.3318
-22.3827
-22.4431
-22.5142
-22.5972
-22.6933
-22.8035
-22.9294
-23.0726
-23.2355
-23.4206
-23.6303
-23.8664
-24.1301
-24.4215
-24.7395
-25.0822
-25.4459
-25.8241
-26.2058
-26.5748
-26.9102
-27.1888
-27.3888
-27.4933
-26.4279
-26.3267
-26.1378
-25.8839
-25.591
-25.282
-24.9742
-24.6786
-24.4006
-24.1425
-23.9049
-23.6881
-23.4923
-23.3173
-23.1621
-23.0251
-22.904
-22.7964
-22.7002
-22.6138
-22.5361
-22.4665
-22.4047
-22.3505
-22.3034
-22.263
-22.2287
-22.2001
-22.177
-22.1592
-22.1466
-22.1394
-22.1375
-22.141
-22.15
-22.1643
-22.1842
-22.21
-22.2421
-22.2814
-22.3289
-22.3858
-22.4533
-22.5328
-22.6253
-22.732
-22.8543
-22.9942
-23.1545
-23.3383
-23.549
-23.789
-24.06
-24.3626
-24.6965
-25.0602
-25.4514
-25.8644
-26.2881
-26.7039
-27.0868
-27.4082
-27.6403
-27.7619
-26.6589
-26.5376
-26.3131
-26.0158
-25.6791
-25.3311
-24.9916
-24.6717
-24.376
-24.1048
-23.8573
-23.6333
-23.4329
-23.2557
-23.1004
-22.9649
-22.8463
-22.7417
-22.6483
-22.5642
-22.4884
-22.4204
-22.3601
-22.3073
-22.2617
-22.2226
-22.1894
-22.1617
-22.139
-22.1213
-22.1087
-22.1012
-22.0989
-22.1017
-22.1097
-22.1227
-22.1409
-22.1644
-22.1938
-22.2298
-22.2737
-22.3268
-22.3905
-22.4661
-22.5549
-22.6577
-22.776
-22.9118
-23.0685
-23.2501
-23.4608
-23.7039
-23.9818
-24.2954
-24.6448
-25.0295
-25.4489
-25.8991
-26.369
-26.8381
-27.2762
-27.6478
-27.9177
-28.0595
-26.9169
-26.7708
-26.503
-26.1539
-25.7666
-25.3752
-25.0018
-24.6574
-24.3445
-24.0609
-23.8041
-23.5732
-23.3686
-23.1896
-23.0348
-22.9016
-22.7865
-22.6854
-22.5952
-22.5137
-22.4399
-22.3735
-22.3146
-22.2633
-22.2193
-22.1817
-22.1497
-22.1227
-22.1005
-22.083
-22.0703
-22.0626
-22.0598
-22.062
-22.069
-22.0808
-22.0972
-22.1185
-22.145
-22.1775
-22.2175
-22.2665
-22.3262
-22.3979
-22.4826
-22.5814
-22.6952
-22.8261
-22.9781
-23.1563
-23.366
-23.6114
-23.8955
-24.2197
-24.584
-24.9891
-25.4367
-25.9257
-26.4464
-26.9757
-27.4777
-27.908
-28.2222
-28.3875
-27.2045
-27.0279
-26.7072
-26.2964
-25.8513
-25.412
-25.0031
-24.6346
-24.3058
-24.0111
-23.7455
-23.508
-23.2994
-23.1191
-22.9656
-22.8357
-22.7249
-22.6282
-22.5416
-22.4629
-22.3911
-22.3261
-22.2685
-22.2187
-22.1764
-22.1404
-22.1097
-22.0836
-22.0619
-22.0446
-22.0318
-22.0237
-22.0205
-22.0221
-22.0284
-22.0389
-22.0537
-22.0726
-22.0961
-22.125
-22.1608
-22.2054
-22.2608
-22.3284
-22.4091
-22.5037
-22.6126
-22.7377
-22.8837
-23.0572
-23.2648
-23.5116
-23.8013
-24.1355
-24.514
-24.9382
-25.4131
-25.942
-26.5178
-27.1148
-27.6902
-28.1893
-28.5552
-28.7475
-27.5248
-27.3108
-26.9255
-26.4415
-25.9305
-25.4393
-24.9936
-24.6022
-24.2598
-23.9556
-23.6819
-23.4379
-23.2256
-23.0445
-22.8929
-22.7673
-22.6619
-22.5704
-22.4879
-22.4121
-22.3422
-22.2784
-22.222
-22.1738
-22.1334
-22.0993
-22.0699
-22.0447
-22.0235
-22.0062
-21.9932
-21.9849
-21.9813
-21.9824
-21.9879
-21.9974
-22.0105
-22.0271
-22.0475
-22.0725
-22.1038
-22.1438
-22.1948
-22.2582
-22.3349
-22.4253
-22.529
-22.6474
-22.7861
-22.9533
-23.1575
-23.4048
-23.6994
-24.0433
-24.435
-24.8761
-25.3763
-25.9454
-26.5804
-27.2533
-27.913
-28.4924
-28.9182
-29.1412
-27.8814
-27.6216
-27.1574
-26.5865
-26.0014
-25.4544
-24.9717
-24.5596
-24.2064
-23.8951
-23.6139
-23.3631
-23.1473
-22.9659
-22.817
-22.6968
-22.5981
-22.5127
-22.4347
-22.3617
-22.2936
-22.2307
-22.1752
-22.1287
-22.0904
-22.0584
-22.0305
-22.0063
-21.9854
-21.9681
-21.9549
-21.9462
-21.9423
-21.943
-21.9479
-21.9564
-21.9679
-21.9823
-21.9996
-22.0204
-22.0469
-22.0819
-22.1283
-22.1875
-22.2603
-22.3468
-22.4453
-22.5559
-22.6856
-22.8449
-23.0445
-23.2912
-23.59
-23.9435
-24.3475
-24.8025
-25.3247
-25.9328
-26.6311
-27.3886
-28.1449
-28.8184
-29.313
-29.5701
-28.2781
-27.9628
-27.4019
-26.7282
-26.0609
-25.455
-24.9352
-24.5058
-24.1461
-23.8306
-23.542
-23.2838
-23.0647
-22.8836
-22.738
-22.6246
-22.5339
-22.4557
-22.3823
-22.3123
-22.2458
-22.1833
-22.1282
-22.0834
-22.0477
-22.018
-21.9918
-21.9684
-21.948
-21.9306
-21.9169
-21.908
-21.9038
-21.9041
-21.9086
-21.9163
-21.9263
-21.9386
-21.9527
-21.9691
-21.9903
-22.02
-22.0617
-22.1166
-22.1857
-22.2689
-22.3622
-22.4641
-22.5829
-22.7322
-22.926
-23.1711
-23.4734
-23.8369
-24.2525
-24.7175
-25.2565
-25.9012
-26.6667
-27.5182
-28.3844
-29.1686
-29.7416
-30.0356
-28.7195
-28.3374
-27.658
-26.8625
-26.1055
-25.4384
-24.8824
-24.4405
-24.0796
-23.7633
-23.467
-23.2001
-22.9781
-22.7975
-22.6558
-22.5508
-22.4698
-22.4
-22.3314
-22.264
-22.1991
-22.1362
-22.0809
-22.0381
-22.0053
-21.9785
-21.9539
-21.9313
-21.9113
-21.8936
-21.8794
-21.8701
-21.8657
-21.8658
-21.8701
-21.8771
-21.8858
-21.8961
-21.9071
-21.9188
-21.9342
-21.9582
-21.9951
-22.0459
-22.1113
-22.1921
-22.2809
-22.3726
-22.4783
-22.6155
-22.8022
-23.0447
-23.3495
-23.7244
-24.1516
-24.6213
-25.1704
-25.8471
-26.6838
-27.6391
-28.6296
-29.545
-30.2065
-30.5387
-29.2104
-28.7492
-27.9236
-26.984
-26.132
-25.4024
-24.8112
-24.3633
-24.0077
-23.6951
-23.3897
-23.1117
-22.8876
-22.708
-22.5705
-22.4756
-22.4062
-22.3462
-22.2823
-22.2172
-22.1537
-22.0895
-22.0333
-21.9926
-21.9636
-21.9401
-21.917
-21.8951
-21.8755
-21.8573
-21.8425
-21.8328
-21.8282
-21.8282
-21.8324
-21.8391
-21.8466
-21.8551
-21.8632
-21.8697
-21.8788
-21.8964
-21.9287
-21.9753
-22.0371
-22.1171
-22.2023
-22.2823
-22.3724
-22.4946
-22.6736
-22.9124
-23.2182
-23.6073
-24.0473
-24.5149
-25.0648
-25.7665
-26.6786
-27.7483
-28.8776
-29.9505
-30.7102
-31.0796
-29.7556
-29.203
-28.1963
-27.0857
-26.137
-25.345
-24.7194
-24.2741
-23.9316
-23.6285
-23.3111
-23.0182
-22.7935
-22.6152
-22.4816
-22.3993
-22.3437
-22.2952
-22.2353
-22.1719
-22.1102
-22.0434
-21.9849
-21.947
-21.9224
-21.9031
-21.8813
-21.8599
-21.8408
-21.8219
-21.806
-21.796
-21.7913
-21.7913
-21.7958
-21.8024
-21.8086
-21.8157
-21.8212
-21.822
-21.8242
-21.8347
-21.8625
-21.905
-21.9629
-22.0442
-22.1278
-22.1941
-22.2656
-22.3695
-22.5406
-22.7745
-23.0787
-23.4866
-23.9427
-24.3992
-24.9387
-25.6546
-26.6476
-27.8429
-29.124
-30.3898
-31.2563
-31.6577
-30.3602
-29.7053
-28.4728
-27.1588
-26.118
-25.2649
-24.6043
-24.1732
-23.8527
-23.5667
-23.232
-22.9183
-22.6963
-22.5195
-22.3886
-22.322
-22.2826
-22.2479
-22.1906
-22.128
-22.0692
-21.9978
-21.9352
-21.9012
-21.882
-21.8678
-21.8469
-21.8256
-21.8074
-21.7872
-21.7699
-21.7598
-21.755
-21.7551
-21.7602
-21.7671
-21.7718
-21.7779
-21.7815
-21.776
-21.7705
-21.7728
-21.7968
-21.8353
-21.8881
-21.9738
-22.0588
-22.1087
-22.1584
-22.2395
-22.4036
-22.6318
-22.9295
-23.3636
-23.8424
-24.2759
-24.7914
-25.5057
-26.5873
-27.9204
-29.3621
-30.8699
-31.8485
-32.2712
-31.0286
-30.2651
-28.7483
-27.1912
-26.0738
-25.1616
-24.4625
-24.0611
-23.7723
-23.514
-23.1533
-22.8099
-22.5968
-22.4214
-22.2907
-22.2442
-22.2232
-22.2056
-22.1483
-22.0854
-22.0314
-21.9527
-21.8836
-21.8551
-21.8424
-21.8346
-21.8137
-21.7921
-21.7754
-21.7534
-21.7342
-21.7241
-21.7194
-21.7194
-21.7256
-21.7334
-21.7362
-21.7419
-21.7444
-21.7317
-21.7177
-21.7103
-21.7317
-21.7663
-21.8118
-21.9064
-21.9973
-22.0268
-22.0512
-22.1035
-22.2635
-22.4855
-22.7679
-23.2397
-23.7523
-24.1464
-24.6228
-25.3127
-26.4948
-27.9793
-29.5808
-31.4016
-32.4913
-32.9161
-31.7639
-30.8951
-29.017
-27.1669
-26.0053
-25.0357
-24.2892
-23.9396
-23.6913
-23.4762
-23.0756
-22.6897
-22.4967
-22.3217
-22.1861
-22.1662
-22.1658
-22.1698
-22.1083
-22.0432
-21.9981
-21.908
-21.8288
-21.8087
-21.8036
-21.8043
-21.7818
-21.7591
-21.7452
-21.7203
-21.6986
-21.689
-21.6844
-21.6843
-21.6919
-21.7014
-21.7015
-21.7075
-21.7106
-21.6892
-21.6661
-21.6466
-21.6674
-21.6986
-21.7324
-21.8421
-21.9459
-21.9488
-21.9448
-21.9596
-22.1213
-22.3377
-22.5893
-23.1157
-23.6807
-24.012
-24.4344
-25.066
-26.3681
-28.0206
-29.7626
-32.0017
-33.1897
-33.5866
-32.5674
-31.6135
-29.2707
-27.0646
-25.9175
-24.8893
-24.0777
-23.8113
-23.6098
-23.4611
-22.9993
-22.5524
-22.3985
-22.2216
-22.0726
-22.0892
-22.1101
-22.1427
-22.0702
-22.0003
-21.9711
-21.8638
-21.7693
-21.7622
-21.7655
-21.7776
-21.751
-21.7262
-21.7172
-21.6881
-21.6628
-21.6545
-21.6501
-21.6494
-21.6592
-21.6715
-21.6673
-21.6747
-21.6807
-21.6484
-21.6159
-21.5807
-21.6045
-21.6333
-21.6475
-21.7809
-21.908
-21.8748
-21.8407
-21.8048
-21.9788
-22.1919
-22.3867
-22.9924
-23.6386
-23.8726
-24.2298
-24.7528
-26.2063
-28.0495
-29.8798
-32.6961
-33.9486
-34.2737
-33.4364
-32.4464
-29.4992
-26.8557
-25.8204
-24.7262
-23.8179
-23.6816
-23.5262
-23.4792
-22.9246
-22.3902
-22.3067
-22.1226
-21.9464
-22.0147
-22.0554
-22.1276
-22.0333
-21.9547
-21.9532
-21.8199
-21.7029
-21.7164
-21.728
-21.7558
-21.721
-21.6929
-21.6923
-21.6565
-21.6265
-21.6209
-21.6167
-21.6147
-21.6275
-21.6444
-21.6331
-21.6431
-21.6559
-21.6092
-21.568
-21.5113
-21.5434
-21.572
-21.5535
-21.7228
-21.8884
-21.8038
-21.7409
-21.6345
-21.8381
-22.0539
-22.1496
-22.87
-23.6413
-23.7263
-24.0162
-24.3554
-26.0102
-28.078
-29.8888
-33.524
-34.7722
-34.9653
-34.3632
-33.4308
-29.6887
-26.5016
-25.7328
-24.552
-23.4954
-23.5589
-23.4358
-23.545
-22.8511
-22.1916
-22.2284
-22.0269
-21.8022
-21.9459
-22
-22.129
-21.9964
-21.9037
-21.9485
-21.7761
-21.6268
-21.6726
-21.6903
-21.7408
-21.6916
-21.6582
-21.6716
-21.6256
-21.5892
-21.5884
-21.5842
-21.5799
-21.5965
-21.621
-21.5982
-21.6125
-21.6377
-21.5709
-21.5234
-21.4361
-21.4852
-21.5177
-21.4455
-21.6675
-21.8934
-21.7337
-21.6494
-21.4417
-21.7021
-21.9332
-21.8628
-22.7479
-23.7094
-23.5667
-23.8067
-23.8489
-25.7827
-28.1292
-29.7231
-34.5444
-35.6615
-35.6458
-35.3322
-34.6186
-29.8214
-25.9508
-25.6845
-24.3742
-23.0885
-23.4577
-23.3292
-23.6782
-22.7778
-21.9407
-22.1741
-21.9374
-21.6318
-21.8878
-21.9404
-22.1532
-21.9576
-21.8427
-21.963
-21.7322
-21.5368
-21.633
-21.6513
-21.7352
-21.662
-21.6208
-21.6569
-21.5952
-21.5503
-21.5575
-21.5532
-21.5446
-21.566
-21.6027
-21.5615
-21.5822
-21.6283
-21.5326
-21.4842
-21.3523
-21.4308
-21.4748
-21.3163
-21.6142
-21.9318
-21.6601
-21.5726
-21.2162
-21.5744
-21.8439
-21.5047
-22.6245
-23.8713
-23.3806
-23.6231
-23.1985
-25.5286
-28.2435
-29.2824
-35.8449
-36.6121
-36.2957
-36.3173
-36.0822
-29.8742
-25.135
-25.7213
-24.202
-22.5667
-23.4004
-23.1891
-23.9058
-22.7026
-21.6149
-22.1597
-21.8572
-21.424
-21.8484
-21.8707
-22.209
-21.914
-21.7656
-22.0049
-21.6874
-21.4274
-21.6014
-21.6088
-21.7424
-21.6311
-21.579
-21.6507
-21.5648
-21.509
-21.5289
-21.5238
-21.5086
-21.5357
-21.5914
-21.5215
-21.5512
-21.6307
-21.4923
-21.4534
-21.2552
-21.3816
-21.45
-21.1562
-21.5616
-22.0159
-21.5751
-21.5205
-20.9434
-21.4595
-21.8072
-21.0453
-22.4963
-24.1653
-23.1441
-23.5005
-22.3555
-25.2543
-28.4864
-28.4192
-37.5529
-37.6093
-36.8922
-37.2779
-37.92
-29.8171
-23.964
-25.9103
-24.0457
-21.8867
-23.4219
-22.9875
-24.2642
-22.6224
-21.1837
-22.2079
-21.7902
-21.1623
-21.8402
-21.781
-22.3089
-21.8617
-21.6636
-22.0859
-21.6404
-21.291
-21.5834
-21.5591
-21.7673
-21.5974
-21.5299
-21.6565
-21.5335
-21.4641
-21.5034
-21.4966
-21.4711
-21.5048
-21.5899
-21.476
-21.518
-21.649
-21.4465
-21.4356
-21.1387
-21.3388
-21.4529
-20.9519
-21.5079
-22.1621
-21.4658
-21.509
-20.6023
-21.3619
-21.8532
-20.4438
-22.3578
-24.6438
-22.8175
-23.4927
-21.2527
-24.9674
-28.9595
-26.9204
-39.8515
-38.6209
-37.4104
-38.1548
-40.2642
-29.6117
-22.3208
-26.3458
-23.9158
-20.9886
-23.574
-22.6804
-24.8026
-22.532
-20.6061
-22.3504
-21.7401
-20.8245
-21.8815
-21.6559
-22.4697
-21.795
-21.5244
-22.2214
-21.589
-21.1173
-21.5871
-21.4959
-21.8164
-21.5581
-21.4699
-21.6786
-21.5
-21.4137
-21.482
-21.4716
-21.4311
-21.4716
-21.6017
-21.4219
-21.4802
-21.6887
-21.3898
-21.4376
-20.9938
-21.3036
-21.4966
-20.6856
-21.4498
-22.3923
-21.3118
-21.5613
-20.1644
-21.2864
-22.0243
-19.6456
-22.2004
-25.3769
-22.338
-23.6797
-19.7986
-24.6741
-29.8148
-24.4846
-42.9988
-39.5886
-37.8248
-38.8654
-43.2889
-29.2088
-20.0546
-27.1569
-23.8218
-19.7912
-23.9317
-22.2019
-25.5865
-22.424
-19.8282
-22.6305
-21.7104
-20.38
-21.9989
-21.4723
-22.7142
-21.7058
-21.3314
-22.432
-21.5294
-20.8929
-21.6245
-21.4097
-21.8981
-21.5096
-21.3937
-21.7228
-21.4616
-21.3553
-21.4657
-21.449
-21.3873
-21.4338
-21.6313
-21.355
-21.4342
-21.7572
-21.3138
-21.4689
-20.8084
-21.2765
-21.5993
-20.3336
-21.3828
-22.736
-21.0826
-21.7115
-19.5905
-21.2373
-22.3781
-18.5791
-22.0113
-26.4588
-21.6111
-24.1773
-17.8702
-24.3768
-31.2728
-20.6942
-47.3519
-40.4148
-38.1124
-39.2982
-47.22
-28.5471
-16.9746
-28.5171
-23.7709
-18.1877
-24.6022
-21.4581
-26.7033
-22.2889
-18.7812
-23.1068
-21.705
-19.7893
-22.2313
-21.1976
-23.0742
-21.5849
-21.064
-22.7456
-21.4574
-20.6015
-21.713
-21.2878
-22.0255
-21.4478
-21.2957
-21.7981
-21.4162
-21.2873
-21.4572
-21.4298
-21.3392
-21.3891
-21.6862
-21.2709
-21.3765
-21.8656
-21.2075
-21.5444
-20.5678
-21.2587
-21.7865
-19.867
-21.3017
-23.2332
-20.7357
-22.0089
-18.8303
-21.2188
-22.9932
-17.1533
-21.7735
-28.0146
-20.5012
-25.1497
-15.3071
-24.0707
-33.6451
-14.9825
-53.3983
-40.9474
-38.2578
)
;

boundaryField
{
    left
    {
        type            calculated;
        value           nonuniform List<scalar> 
32
(
-25.2928
-25.3161
-25.3609
-25.4258
-25.51
-25.613
-25.7351
-25.8766
-26.0384
-26.2217
-26.4279
-26.6589
-26.9169
-27.2045
-27.5248
-27.8814
-28.2781
-28.7195
-29.2104
-29.7556
-30.3602
-31.0286
-31.7639
-32.5674
-33.4364
-34.3632
-35.3322
-36.3173
-37.2779
-38.1548
-38.8654
-39.2982
)
;
    }
    right
    {
        type            calculated;
        value           nonuniform List<scalar> 
32
(
-26.2528
-26.2844
-26.3452
-26.4331
-26.5468
-26.6855
-26.8491
-27.0379
-27.2523
-27.4933
-27.7619
-28.0595
-28.3875
-28.7475
-29.1412
-29.5701
-30.0356
-30.5387
-31.0796
-31.6577
-32.2712
-32.9161
-33.5866
-34.2737
-34.9653
-35.6458
-36.2957
-36.8922
-37.4104
-37.8248
-38.1124
-38.2578
)
;
    }
    interface
    {
        type            calculated;
        value           nonuniform List<scalar> 
64
(
-39.4293
-49.4441
-28.143
-15.2048
-29.3594
-23.757
-17.2693
-25.0314
-21.0062
-27.3575
-22.2133
-18.181
-23.4025
-21.709
-19.452
-22.3819
-21.0329
-23.2877
-21.5154
-20.909
-22.9323
-21.4178
-20.4368
-21.7729
-21.2163
-22.1025
-21.4132
-21.2407
-21.845
-21.3915
-21.2507
-21.4554
-21.4214
-21.3143
-21.3648
-21.7211
-21.2242
-21.3444
-21.9316
-21.1453
-21.5956
-20.4317
-21.2524
-21.905
-19.6012
-21.257
-23.526
-20.5267
-22.2018
-18.3966
-21.2178
-23.3774
-16.338
-21.6402
-28.9291
-19.8305
-25.7786
-13.8442
-23.9143
-35.1053
-11.5652
-56.9148
-41.1173
-38.2937
)
;
    }
    bottom
    {
        type            calculated;
        value           nonuniform List<scalar> 
64
(
-25.2868
-25.2572
-25.1992
-25.1151
-25.0084
-24.8827
-24.7423
-24.5912
-24.4335
-24.2726
-24.1116
-23.9531
-23.7993
-23.6516
-23.5114
-23.3794
-23.256
-23.1416
-23.0363
-22.9398
-22.8521
-22.773
-22.7022
-22.6393
-22.5843
-22.5368
-22.4966
-22.4636
-22.4376
-22.4186
-22.4065
-22.4014
-22.4032
-22.4122
-22.4285
-22.4524
-22.4841
-22.5242
-22.573
-22.631
-22.6988
-22.7769
-22.8659
-22.9664
-23.079
-23.2041
-23.342
-23.4931
-23.6572
-23.8341
-24.023
-24.2227
-24.4316
-24.6473
-24.8667
-25.0862
-25.3012
-25.507
-25.6979
-25.8684
-26.013
-26.1264
-26.2047
-26.2446
)
;
    }
    defaultFaces
    {
        type            empty;
    }
}


// ************************************************************************* //
