/*--------------------------------*- C++ -*----------------------------------*\
| =========                 |                                                 |
| \\      /  F ield         | OpenFOAM: The Open Source CFD Toolbox           |
|  \\    /   O peration     | Version:  5.x                                   |
|   \\  /    A nd           | Web:      www.OpenFOAM.org                      |
|    \\/     M anipulation  |                                                 |
\*---------------------------------------------------------------------------*/
FoamFile
{
    version     2.0;
    format      ascii;
    class       volScalarField;
    location    "0.7";
    object      gradTx;
}
// * * * * * * * * * * * * * * * * * * * * * * * * * * * * * * * * * * * * * //

dimensions      [0 -1 0 1 0 0 0];

internalField   nonuniform List<scalar> 
2048
(
0.00680907
0.0201475
0.0326508
0.0438557
0.0534341
0.061176
0.0670129
0.0709963
0.073262
0.0740016
0.0734369
0.0717988
0.0693115
0.0661825
0.0625959
0.0587088
0.0546503
0.0505212
0.0463964
0.0423284
0.0383507
0.0344825
0.0307316
0.0270983
0.0235764
0.0201556
0.0168214
0.0135565
0.010341
0.00715317
0.00396944
0.000764975
-0.00248629
-0.00581159
-0.00923921
-0.0127982
-0.0165178
-0.0204265
-0.0245508
-0.0289138
-0.0335332
-0.0384196
-0.0435744
-0.0489879
-0.0546362
-0.0604778
-0.0664496
-0.0724621
-0.0783939
-0.0840882
-0.0893495
-0.0939438
-0.0976012
-0.100023
-0.100894
-0.0998983
-0.0967433
-0.0911915
-0.0830942
-0.0724277
-0.0593219
-0.044077
-0.0271592
-0.00917515
0.0203666
0.0602482
0.0975981
0.131009
0.15949
0.182432
0.19965
0.211315
0.217855
0.219858
0.217998
0.21297
0.205445
0.196042
0.185309
0.173711
0.161629
0.14936
0.137122
0.125068
0.113293
0.10185
0.0907608
0.080024
0.0696207
0.0595189
0.0496759
0.0400397
0.0305515
0.0211461
0.0117541
0.00230174
-0.00728802
-0.0170958
-0.0272054
-0.0377032
-0.0486764
-0.0602104
-0.0723847
-0.085269
-0.098917
-0.113362
-0.12861
-0.144634
-0.161367
-0.178689
-0.196418
-0.214293
-0.23196
-0.248956
-0.264704
-0.278509
-0.289568
-0.29699
-0.299826
-0.297123
-0.287992
-0.271702
-0.247783
-0.216141
-0.177147
-0.131691
-0.0811741
-0.0274277
0.033993
0.100511
0.162683
0.218107
0.265114
0.302732
0.33071
0.349402
0.359584
0.362285
0.358661
0.349884
0.337074
0.321258
0.303338
0.284077
0.264098
0.243878
0.223767
0.204001
0.184728
0.166024
0.147917
0.130401
0.113439
0.0969797
0.0809499
0.0652642
0.0498249
0.0345249
0.0192499
0.00387944
-0.0117125
-0.0276577
-0.0440937
-0.0611628
-0.0790097
-0.0977771
-0.117599
-0.138593
-0.160852
-0.184434
-0.209356
-0.235581
-0.263005
-0.291445
-0.320617
-0.350106
-0.379345
-0.407586
-0.433888
-0.45711
-0.475923
-0.488843
-0.494278
-0.490614
-0.476321
-0.450114
-0.411134
-0.359149
-0.294723
-0.219315
-0.135276
-0.0457231
0.048069
0.14203
0.229588
0.307249
0.37264
0.424465
0.462497
0.487378
0.50033
0.502902
0.496781
0.483643
0.46507
0.442496
0.417174
0.390156
0.362291
0.334225
0.306419
0.279177
0.252678
0.227009
0.202195
0.178216
0.155019
0.132527
0.110638
0.0892319
0.0681733
0.0473129
0.0264929
0.00554764
-0.0156955
-0.0374173
-0.0598074
-0.0830633
-0.107388
-0.132982
-0.160038
-0.188726
-0.219182
-0.251495
-0.285696
-0.321748
-0.359526
-0.398799
-0.439201
-0.480191
-0.521015
-0.560664
-0.59785
-0.630995
-0.658251
-0.677528
-0.686568
-0.683039
-0.664698
-0.629598
-0.576373
-0.50454
-0.414775
-0.309093
-0.19084
-0.0645346
0.0629412
0.185801
0.299829
0.400293
0.484079
0.549633
0.596885
0.626918
0.641539
0.642923
0.633353
0.615045
0.590055
0.560226
0.527157
0.492184
0.456368
0.420505
0.385147
0.350639
0.317172
0.284826
0.253608
0.223479
0.194365
0.166164
0.138745
0.111953
0.0856119
0.0595309
0.0335096
0.00733928
-0.019197
-0.0463265
-0.0742888
-0.103336
-0.133731
-0.165736
-0.199607
-0.23557
-0.27381
-0.314456
-0.357559
-0.403091
-0.450919
-0.500786
-0.552272
-0.604742
-0.657285
-0.70866
-0.757252
-0.80106
-0.83771
-0.864497
-0.878456
-0.876477
-0.855491
-0.812749
-0.746202
-0.654952
-0.539677
-0.402915
-0.249084
-0.0842841
0.0789486
0.232788
0.374847
0.498958
0.60123
0.679957
0.735412
0.769331
0.78429
0.783219
0.769069
0.744629
0.712436
0.674744
0.633494
0.590296
0.546416
0.502777
0.459993
0.418425
0.378246
0.339506
0.302184
0.266213
0.231498
0.197911
0.16529
0.133444
0.102158
0.0711971
0.0403189
0.00927347
-0.0221971
-0.0543632
-0.087512
-0.12195
-0.158001
-0.195995
-0.236254
-0.279071
-0.324688
-0.373274
-0.424912
-0.47959
-0.537181
-0.597426
-0.659883
-0.72386
-0.788332
-0.851857
-0.912516
-0.967895
-1.0151
-1.05078
-1.07124
-1.07252
-1.05059
-1.00172
-0.922945
-0.812729
-0.671583
-0.502525
-0.311148
-0.105367
0.096442
0.283974
0.456082
0.604909
0.725758
0.816939
0.879333
0.915612
0.929346
0.924367
0.904364
0.872717
0.832445
0.786205
0.736279
0.684546
0.632463
0.581059
0.530981
0.482567
0.43594
0.391096
0.347967
0.306458
0.266449
0.227792
0.190294
0.153727
0.117831
0.082328
0.0469333
0.0113582
-0.0246923
-0.0615271
-0.099478
-0.138905
-0.180194
-0.223749
-0.269967
-0.319216
-0.3718
-0.42794
-0.487753
-0.551247
-0.618318
-0.688725
-0.762042
-0.83757
-0.914216
-0.990376
-1.06386
-1.13183
-1.19089
-1.23704
-1.26581
-1.27233
-1.25148
-1.19831
-1.10865
-0.980016
-0.812528
-0.609606
-0.37814
-0.128172
0.1158
0.34041
0.545034
0.71981
0.859242
0.961907
1.02966
1.06647
1.07718
1.06668
1.03945
0.999452
0.950169
0.89465
0.835515
0.774915
0.714487
0.655343
0.598123
0.543099
0.490305
0.439651
0.391013
0.344261
0.29926
0.255842
0.213788
0.172827
0.132653
0.0929397
0.0533611
0.0135925
-0.0266926
-0.0678362
-0.11021
-0.154225
-0.200334
-0.249019
-0.300763
-0.356018
-0.415165
-0.478478
-0.546107
-0.618088
-0.694345
-0.774681
-0.858727
-0.945834
-1.0349
-1.12421
-1.21132
-1.293
-1.36532
-1.42365
-1.46273
-1.47672
-1.4593
-1.40402
-1.30515
-1.15884
-0.964497
-0.725833
-0.451179
-0.153091
0.137443
0.40325
0.643308
0.845375
1.00321
1.11603
1.18717
1.22236
1.22802
1.21025
1.17436
1.12483
1.06558
1.00003
0.931136
0.86133
0.792427
0.725595
0.661423
0.60006
0.541403
0.485247
0.431393
0.379683
0.329978
0.282101
0.235805
0.190774
0.146648
0.103049
0.0596079
0.015969
-0.0282192
-0.0733237
-0.119749
-0.167957
-0.218468
-0.271848
-0.328681
-0.389519
-0.454826
-0.524934
-0.600029
-0.680166
-0.765298
-0.855296
-0.949896
-1.04857
-1.15027
-1.25324
-1.3548
-1.45135
-1.5384
-1.61069
-1.66222
-1.68616
-1.67485
-1.6201
-1.51411
-1.35115
-1.12948
-0.85292
-0.531421
-0.18053
0.16185
0.473792
0.752663
0.983395
1.15915
1.28034
1.35242
1.38344
1.38181
1.35496
1.30895
1.24874
1.17858
1.10223
1.02302
0.943677
0.866193
0.791769
0.720884
0.6535
0.589316
0.527974
0.469191
0.412794
0.358657
0.306611
0.256383
0.207601
0.159843
0.112673
0.0656782
0.0184755
-0.0293017
-0.0780348
-0.128154
-0.180166
-0.234661
-0.292301
-0.353783
-0.419776
-0.490844
-0.567382
-0.6496
-0.737558
-0.831237
-0.930586
-1.0355
-1.14565
-1.26017
-1.37729
-1.49413
-1.6067
-1.70997
-1.79805
-1.86423
-1.90078
-1.89864
-1.84753
-1.73704
-1.55885
-1.3095
-0.992652
-0.620075
-0.210916
0.189576
0.553519
0.875057
1.13577
1.32852
1.45568
1.5257
1.54965
1.53829
1.50051
1.44301
1.37101
1.289
1.20111
1.11102
1.02181
0.935675
0.853812
0.776517
0.703482
0.634142
0.567942
0.504507
0.443668
0.385353
0.329417
0.27556
0.223345
0.172269
0.121833
0.0715766
0.0210968
-0.0299762
-0.0820251
-0.135494
-0.19093
-0.248995
-0.310457
-0.376143
-0.446862
-0.523299
-0.605914
-0.694924
-0.790375
-0.892252
-1.00059
-1.11549
-1.23694
-1.36437
-1.49609
-1.62903
-1.75878
-1.87974
-1.98541
-2.06847
-2.12042
-2.13085
-2.08706
-1.97534
-1.78387
-1.50667
-1.14691
-0.718419
-0.244697
0.221265
0.644142
1.01269
1.30453
1.51274
1.64275
1.70707
1.72061
1.69695
1.64644
1.57618
1.49139
1.39666
1.29648
1.19495
1.09556
1.00075
0.911666
0.828344
0.750092
0.676004
0.605284
0.537452
0.472387
0.41012
0.350562
0.293379
0.238045
0.183963
0.130553
0.0773092
0.0238159
-0.0302842
-0.0853584
-0.141852
-0.200342
-0.261567
-0.326409
-0.395845
-0.470858
-0.552279
-0.640637
-0.736134
-0.83876
-0.948471
-1.06537
-1.18983
-1.32229
-1.46263
-1.60936
-1.7592
-1.90726
-2.04734
-2.17232
-2.27438
-2.34459
-2.37132
-2.33919
-2.23026
-2.02811
-1.72321
-1.31771
-0.827797
-0.282339
0.257671
0.747649
1.16805
1.49184
1.71315
1.84202
1.89629
1.89569
1.85706
1.79218
1.70812
1.60966
1.50139
1.38817
1.27464
1.16475
1.06127
0.965279
0.876401
0.793439
0.715054
0.640155
0.568152
0.499032
0.433009
0.370087
0.309882
0.251745
0.194962
0.138862
0.0828848
0.0266156
-0.0302705
-0.088105
-0.147316
-0.208504
-0.272484
-0.340259
-0.412984
-0.491852
-0.577879
-0.671672
-0.773381
-0.882887
-1.00006
-1.12504
-1.2585
-1.40155
-1.55471
-1.71679
-1.88432
-2.05182
-2.21239
-2.35823
-2.48124
-2.57251
-2.61958
-2.60413
-2.50296
-2.29352
-1.96146
-1.50717
-0.949614
-0.324315
0.299676
0.866352
1.34396
1.69999
1.93103
2.05373
2.09285
2.07395
2.01768
1.93705
1.83844
1.72562
1.60303
1.47603
1.34987
1.22918
1.1171
1.0146
0.920749
0.833656
0.751469
0.672735
0.596744
0.523681
0.454062
0.388027
0.325112
0.264493
0.205313
0.146793
0.0883153
0.0294787
-0.0299822
-0.0903399
-0.151985
-0.215528
-0.281861
-0.352122
-0.427657
-0.50993
-0.600197
-0.699148
-0.806837
-0.922963
-1.04725
-1.17976
-1.32153
-1.47454
-1.64031
-1.81807
-2.00406
-2.19209
-2.37447
-2.54255
-2.68813
-2.80305
-2.87477
-2.88181
-2.79442
-2.58208
-2.22393
-1.71758
-1.08531
-0.37109
0.348299
1.00294
1.54364
1.93142
2.16747
2.27786
2.2959
2.25415
2.17766
2.08031
1.96683
1.83911
1.70144
1.5599
1.42049
1.28864
1.16807
1.0596
0.961472
0.870905
0.785453
0.703234
0.623378
0.546407
0.473309
0.404413
0.339114
0.27634
0.215064
0.154387
0.0936167
0.0323893
-0.029468
-0.0921422
-0.15596
-0.22153
-0.289825
-0.362118
-0.439967
-0.525176
-0.619323
-0.723199
-0.83669
-0.959225
-1.09029
-1.22976
-1.37896
-1.54112
-1.71913
-1.91286
-2.11811
-2.32779
-2.53324
-2.72473
-2.89399
-3.03478
-3.13562
-3.17186
-3.10554
-2.8958
-2.51332
-1.95139
-1.2363
-0.423081
0.40471
1.16055
1.77079
2.18867
2.42338
2.5141
2.5043
2.43478
2.33566
2.22121
2.09305
1.95008
1.79653
1.63967
1.48629
1.3429
1.21403
1.10025
0.998684
0.905373
0.81724
0.73189
0.648212
0.567265
0.490759
0.419267
0.351939
0.287342
0.224271
0.161691
0.0988095
0.0353322
-0.0287767
-0.0935929
-0.15935
-0.226631
-0.296505
-0.370379
-0.450019
-0.537667
-0.635342
-0.74396
-0.863139
-0.991929
-1.12951
-1.27532
-1.43088
-1.60109
-1.79087
-2.00086
-2.2262
-2.45863
-2.68846
-2.90429
-3.09768
-3.26591
-3.40043
-3.47357
-3.43705
-3.23674
-2.83256
-2.21123
-1.40393
-0.480615
0.470218
1.34281
2.02964
2.47432
2.69931
2.76179
2.71658
2.614
2.49015
2.35898
2.21702
2.05855
1.88827
1.71528
1.54712
1.39171
1.25477
1.13654
1.03254
0.937268
0.847088
0.758979
0.671413
0.586291
0.506399
0.432604
0.363642
0.297559
0.232992
0.168758
0.103919
0.0382932
-0.0279567
-0.0947746
-0.162265
-0.230955
-0.30204
-0.377046
-0.457918
-0.547467
-0.648321
-0.761563
-0.88639
-1.02134
-1.16529
-1.31683
-1.47741
-1.65428
-1.85515
-2.08176
-2.32811
-2.5844
-2.84
-3.08094
-3.29799
-3.49431
-3.66703
-3.78589
-3.78956
-3.60693
-3.18487
-2.49997
-1.58935
-0.543852
0.546241
1.55387
2.32509
2.79095
2.99541
3.01999
2.93101
2.78966
2.6394
2.49294
2.33891
2.1647
1.97659
1.78669
1.60284
1.4348
1.29008
1.16848
1.06325
0.966811
0.87527
0.784821
0.693159
0.603489
0.520184
0.444435
0.374291
0.307054
0.241287
0.175654
0.108974
0.041258
-0.0270545
-0.0957696
-0.164817
-0.234623
-0.306566
-0.382275
-0.463775
-0.554625
-0.65831
-0.776135
-0.906658
-1.04774
-1.19804
-1.35479
-1.51874
-1.70045
-1.91161
-2.15529
-2.42368
-2.70487
-2.98789
-3.25466
-3.49372
-3.71748
-3.93271
-4.10742
-4.16358
-4.00835
-3.57381
-2.82076
-1.79336
-0.612681
0.634233
1.7985
2.66287
3.14104
3.31118
3.28748
3.14562
2.95932
2.7815
2.62248
2.4592
2.26878
2.06145
1.85394
1.65333
1.47184
1.31972
1.19612
1.09107
0.994226
0.90207
0.809795
0.713635
0.618821
0.532032
0.454764
0.383976
0.315891
0.249216
0.182453
0.114008
0.0442101
-0.0261137
-0.0966591
-0.167123
-0.237749
-0.310223
-0.386241
-0.467701
-0.559169
-0.665329
-0.787804
-0.924164
-1.07135
-1.22824
-1.38983
-1.55511
-1.73932
-1.95976
-2.22121
-2.51281
-2.81983
-3.13234
-3.42588
-3.68374
-3.93252
-4.19418
-4.43641
-4.55955
-4.44281
-4.00341
-3.17718
-2.01619
-0.686582
0.735543
2.08206
3.04979
3.52679
3.64528
3.56286
3.35827
3.12024
2.91435
2.74713
2.57878
2.37117
2.14268
1.91718
1.69851
1.50246
1.34341
1.21954
1.11637
1.01971
0.927761
0.83436
0.733031
0.63219
0.541818
0.463599
0.392816
0.324131
0.256832
0.18925
0.119059
0.0471289
-0.0251725
-0.0975213
-0.169303
-0.240437
-0.313143
-0.389146
-0.469816
-0.561105
-0.669367
-0.796695
-0.939147
-1.09235
-1.25638
-1.42278
-1.5868
-1.77056
-1.99909
-2.27931
-2.59557
-2.92891
-3.27368
-3.59559
-3.86703
-4.1361
-4.44751
-4.7708
-4.97794
-4.91171
-4.47824
-3.5734
-2.25718
-0.764451
0.85118
2.41056
3.49405
3.9499
3.99525
3.8447
3.56675
3.26934
3.03562
2.86656
2.69913
2.47231
2.21998
1.97667
1.73835
1.52621
1.36078
1.23885
1.13962
1.04342
0.952591
0.85909
0.751541
0.643424
0.549367
0.47095
0.400975
0.331821
0.264176
0.196159
0.124163
0.0499846
-0.0242608
-0.0984297
-0.171488
-0.242776
-0.315444
-0.39123
-0.470247
-0.560408
-0.670366
-0.802935
-0.951879
-1.11084
-1.28297
-1.45469
-1.61417
-1.79372
-2.02894
-2.32949
-2.67219
-3.03156
-3.41236
-3.76558
-4.04274
-4.32446
-4.68804
-5.10821
-5.41944
-5.41571
-5.00365
-4.01453
-2.51435
-0.844377
0.981447
2.79055
4.00572
4.41129
4.35709
4.13186
3.76888
3.40317
3.14269
2.98061
2.8225
2.57262
2.29272
2.03292
1.77288
1.5425
1.37142
1.25423
1.16148
1.06538
0.976746
0.884717
0.769354
0.652253
0.55445
0.476837
0.408686
0.338986
0.271269
0.20333
0.129358
0.0527327
-0.0233954
-0.0994503
-0.173823
-0.244827
-0.317222
-0.392787
-0.469132
-0.557022
-0.668216
-0.806663
-0.962697
-1.12673
-1.30849
-1.48694
-1.63761
-1.80821
-2.04849
-2.37169
-2.74321
-3.12682
-3.54887
-3.93873
-4.21021
-4.49334
-4.9103
-5.44602
-5.88526
-5.95421
-5.58593
-4.50708
-2.78377
-0.923397
1.12537
3.22908
4.59746
4.91067
4.72483
4.42391
3.96259
3.51791
3.23271
3.08923
2.95214
2.67239
2.35979
2.0868
1.80219
1.55063
1.37482
1.26589
1.18285
1.08548
1.00031
0.91221
0.786642
0.658286
0.556783
0.481295
0.416277
0.345605
0.278098
0.210964
0.134673
0.0553054
-0.0225731
-0.100637
-0.176485
-0.246616
-0.318528
-0.394187
-0.466617
-0.550852
-0.662731
-0.808026
-0.972058
-1.13971
-1.33335
-1.52133
-1.65755
-1.8133
-2.05675
-2.40599
-2.80965
-3.21312
-3.68354
-4.11935
-4.36895
-4.63798
-5.1079
-5.78133
-6.37759
-6.52453
-6.23265
-5.05962
-3.05877
-0.99724
1.27992
3.73352
5.28539
5.44594
5.0899
4.72177
4.14597
3.60926
3.30245
3.19243
3.09267
2.77165
2.4194
2.13973
1.82645
1.54968
1.37038
1.27408
1.20498
1.10332
1.02323
0.942868
0.803528
0.660978
0.556029
0.484371
0.424211
0.351587
0.284601
0.219337
0.140121
0.057601
-0.0217614
-0.102027
-0.179692
-0.248126
-0.319351
-0.395908
-0.46286
-0.541771
-0.653641
-0.807185
-0.980617
-1.14915
-1.35781
-1.56024
-1.67439
-1.80807
-2.05247
-2.43255
-2.87327
-3.28795
-3.81639
-4.31366
-4.51857
-4.75315
-5.27341
-6.11098
-6.90042
-7.12073
-6.95303
-5.68375
-3.32879
-1.0601
1.43887
4.3113
6.09042
6.01245
5.44037
5.0286
4.31726
3.67236
3.3484
3.29008
3.25051
2.86993
2.46878
2.19393
1.84584
1.53852
1.3574
1.27907
1.22963
1.11814
1.04521
0.978455
0.820046
0.659604
0.551811
0.486117
0.433136
0.356727
0.290654
0.228832
0.145692
0.0594694
-0.0208862
-0.103629
-0.183736
-0.249279
-0.319579
-0.39858
-0.458013
-0.529616
-0.640557
-0.804297
-0.989344
-1.15397
-1.38189
-1.60682
-1.68847
-1.79141
-2.03406
-2.45158
-2.93691
-3.34755
-3.9468
-4.53046
-4.65857
-4.83314
-5.39819
-6.43137
-7.46064
-7.73196
-7.75844
-6.39541
-3.57792
-1.10452
1.59131
4.96957
7.03987
6.60201
5.76012
5.35101
4.4747
3.70173
3.3667
3.38171
3.43447
2.96595
2.50385
2.2529
1.86048
1.51567
1.33508
1.28109
1.25924
1.12862
1.06566
1.02138
0.836067
0.653224
0.543727
0.486579
0.443956
0.360659
0.296046
0.239987
0.151327
0.0606956
-0.0198151
-0.105415
-0.189013
-0.249926
-0.318963
-0.403035
-0.452211
-0.514201
-0.622955
-0.799495
-0.999687
-1.15248
-1.40524
-1.66525
-1.6999
-1.76199
-1.99959
-2.46326
-3.00505
-3.38635
-4.07306
-4.78188
-4.78802
-4.87193
-5.47232
-6.73821
-8.06971
-8.34021
-8.66303
-7.21662
-3.78294
-1.12145
1.71974
5.71475
8.16963
7.20156
6.0277
5.70066
4.61617
3.69115
3.3533
3.46605
3.65654
3.05726
2.51875
2.32184
1.87031
1.47934
1.30257
1.28021
1.2972
1.13269
1.0836
1.07493
0.851197
0.64066
0.531387
0.485756
0.457916
0.362782
0.300461
0.253548
0.156899
0.0609792
-0.0183378
-0.107298
-0.196066
-0.24983
-0.317049
-0.410388
-0.44554
-0.495336
-0.600143
-0.792828
-1.01379
-1.14224
-1.42695
-1.74108
-1.70845
-1.71839
-1.94667
-2.46757
-3.08444
-3.3965
-4.19191
-5.0845
-4.905
-4.86343
-5.48444
-7.0259
-8.74601
-8.91732
-9.68454
-8.17767
-3.91078
-1.10065
1.79761
6.5519
9.52679
7.79159
6.21518
6.09631
4.73862
3.6336
3.3041
3.54046
3.9328
3.13971
2.50543
2.4084
1.87485
1.42732
1.25903
1.27622
1.3482
1.12729
1.09751
1.14356
0.864624
0.620478
0.514458
0.483547
0.476724
0.362173
0.303449
0.270549
0.162179
0.0599133
-0.0161429
-0.109113
-0.205641
-0.248653
-0.313113
-0.422132
-0.437984
-0.472859
-0.571237
-0.784182
-1.03478
-1.11984
-1.44536
-1.84166
-1.71321
-1.65906
-1.87244
-2.46397
-3.18504
-3.36718
-4.29775
-5.46062
-5.00576
-4.80178
-5.42166
-7.28664
-9.51802
-9.42109
-10.8453
-9.31987
-3.91531
-1.03155
1.78638
7.48403
11.1729
8.34412
6.28678
6.56629
4.83708
3.52126
3.21526
3.60013
4.28467
3.20687
2.45301
2.52348
1.87286
1.35695
1.20371
1.26838
1.41866
1.10801
1.10523
1.23324
0.874917
0.590982
0.492732
0.47967
0.502689
0.357477
0.304408
0.292397
0.166784
0.0569603
-0.0127913
-0.110585
-0.218755
-0.245946
-0.306058
-0.440257
-0.429361
-0.446678
-0.535134
-0.773145
-1.0671
-1.08066
-1.45776
-1.97668
-1.7123
-1.58257
-1.77352
-2.45098
-3.32113
-3.28385
-4.38184
-5.93996
-5.08363
-4.68196
-5.26962
-7.50894
-10.4285
-9.79044
-12.1734
-10.699
-3.73331
-0.904803
1.63201
8.51124
13.1876
8.8204
6.19731
7.15156
4.90333
3.34561
3.08363
3.63697
4.74035
3.24922
2.34719
2.6823
1.86189
1.26515
1.13609
1.25511
1.51723
1.06879
1.1038
1.35191
0.879753
0.550236
0.466208
0.473537
0.538906
0.346768
0.302559
0.32098
0.170129
0.0514308
-0.00768874
-0.11129
-0.236772
-0.241134
-0.294308
-0.467406
-0.419214
-0.416839
-0.490509
-0.758821
-1.11699
-1.01863
-1.46005
-2.15877
-1.70235
-1.48777
-1.64606
-2.42557
-3.51266
-3.12746
-4.43118
-6.56162
-5.1274
-4.50053
-5.01261
-7.67559
-11.5397
-9.93946
-13.7043
-12.389
-3.27961
-0.714723
1.26093
9.62977
15.6734
9.16808
5.89064
7.90926
4.92404
3.09755
2.90737
3.63824
5.33655
3.25335
2.16953
2.90566
1.8376
1.14848
1.05612
1.23361
1.65544
1.00142
1.08928
1.50994
0.875582
0.496107
0.435207
0.464097
0.589473
0.327395
0.296928
0.358789
0.171348
0.0424629
-5.77598e-05
-0.110611
-0.26149
-0.233517
-0.275661
-0.507054
-0.406685
-0.383609
-0.43581
-0.73958
-1.19293
-0.925963
-1.44635
-2.40434
-1.67791
-1.37407
-1.4858
-2.38228
-3.78687
-2.87353
-4.4273
-7.37653
-5.11939
-4.25665
-4.63391
-7.76075
-12.9401
-9.75036
-15.4824
-14.4871
-2.44116
-0.462756
0.575592
10.831
18.76
9.31813
5.29802
8.91677
4.87839
2.76787
2.68679
3.5848
6.12052
3.20085
1.8968
3.22128
1.79297
1.0032
0.964397
1.19925
1.84846
0.895085
1.0566
1.72073
0.857208
0.426349
0.400496
0.449629
0.659749
0.295786
0.286335
0.40905
0.169212
0.0290087
0.0110877
-0.107681
-0.295239
-0.222271
-0.247136
-0.563731
-0.390342
-0.347584
-0.369289
-0.712737
-1.30629
-0.792854
-1.40854
-2.73442
-1.63068
-1.24188
-1.28819
-2.31218
-4.18017
-2.49126
-4.34475
-8.45019
-5.03296
-3.95338
-4.11637
-7.72621
-14.7526
-9.06522
-17.5632
-17.1182
-1.07023
-0.162286
)
;

boundaryField
{
    left
    {
        type            calculated;
        value           uniform 0;
    }
    right
    {
        type            calculated;
        value           uniform 0;
    }
    interface
    {
        type            calculated;
        value           nonuniform List<scalar> 
64
(
0.575592
10.831
18.76
9.31813
5.29802
8.91677
4.87839
2.76787
2.68679
3.5848
6.12052
3.20085
1.8968
3.22128
1.79297
1.0032
0.964397
1.19925
1.84846
0.895085
1.0566
1.72073
0.857208
0.426349
0.400496
0.449629
0.659749
0.295786
0.286335
0.40905
0.169212
0.0290087
0.0110877
-0.107681
-0.295239
-0.222271
-0.247136
-0.563731
-0.390342
-0.347584
-0.369289
-0.712737
-1.30629
-0.792854
-1.40854
-2.73442
-1.63068
-1.24188
-1.28819
-2.31218
-4.18017
-2.49126
-4.34475
-8.45019
-5.03296
-3.95338
-4.11637
-7.72621
-14.7526
-9.06522
-17.5632
-17.1182
-1.07023
-0.162286
)
;
    }
    bottom
    {
        type            calculated;
        value           nonuniform List<scalar> 
64
(
0.00680907
0.0201475
0.0326508
0.0438557
0.0534341
0.061176
0.0670129
0.0709963
0.073262
0.0740016
0.0734369
0.0717988
0.0693115
0.0661825
0.0625959
0.0587088
0.0546503
0.0505212
0.0463964
0.0423284
0.0383507
0.0344825
0.0307316
0.0270983
0.0235764
0.0201556
0.0168214
0.0135565
0.010341
0.00715317
0.00396944
0.000764975
-0.00248629
-0.00581159
-0.00923921
-0.0127982
-0.0165178
-0.0204265
-0.0245508
-0.0289138
-0.0335332
-0.0384196
-0.0435744
-0.0489879
-0.0546362
-0.0604778
-0.0664496
-0.0724621
-0.0783939
-0.0840882
-0.0893495
-0.0939438
-0.0976012
-0.100023
-0.100894
-0.0998983
-0.0967433
-0.0911915
-0.0830942
-0.0724277
-0.0593219
-0.044077
-0.0271592
-0.00917515
)
;
    }
    defaultFaces
    {
        type            empty;
    }
}


// ************************************************************************* //
