/*--------------------------------*- C++ -*----------------------------------*\
| =========                 |                                                 |
| \\      /  F ield         | OpenFOAM: The Open Source CFD Toolbox           |
|  \\    /   O peration     | Version:  5.x                                   |
|   \\  /    A nd           | Web:      www.OpenFOAM.org                      |
|    \\/     M anipulation  |                                                 |
\*---------------------------------------------------------------------------*/
FoamFile
{
    version     2.0;
    format      ascii;
    class       volScalarField;
    location    "0.7";
    object      T;
}
// * * * * * * * * * * * * * * * * * * * * * * * * * * * * * * * * * * * * * //

dimensions      [0 0 0 1 0 0 0];

internalField   nonuniform List<scalar> 
2048
(
9.81833
9.81855
9.81896
9.81957
9.82033
9.82124
9.82224
9.82333
9.82446
9.82562
9.82678
9.82791
9.82902
9.83008
9.83109
9.83204
9.83292
9.83374
9.8345
9.83519
9.83582
9.83639
9.8369
9.83735
9.83775
9.83809
9.83838
9.83862
9.8388
9.83894
9.83903
9.83906
9.83905
9.83898
9.83887
9.8387
9.83847
9.83818
9.83783
9.83741
9.83693
9.83636
9.83573
9.835
9.83419
9.8333
9.8323
9.83122
9.83004
9.82877
9.82741
9.82598
9.82448
9.82293
9.82135
9.81977
9.81823
9.81675
9.81538
9.81415
9.81312
9.8123
9.81174
9.81145
9.46277
9.46341
9.46466
9.46646
9.46875
9.47144
9.47445
9.47768
9.48106
9.48449
9.48793
9.4913
9.49458
9.49772
9.50071
9.50352
9.50614
9.50857
9.5108
9.51285
9.51471
9.51639
9.5179
9.51923
9.5204
9.5214
9.52226
9.52296
9.52351
9.52391
9.52417
9.52428
9.52424
9.52405
9.52371
9.5232
9.52253
9.52168
9.52065
9.51942
9.51798
9.51633
9.51444
9.51231
9.50992
9.50726
9.50433
9.50113
9.49764
9.49388
9.48986
9.48561
9.48115
9.47656
9.47187
9.46719
9.46259
9.45819
9.4541
9.45044
9.44734
9.44491
9.44323
9.44237
9.1223
9.12336
9.12544
9.12845
9.13226
9.13673
9.14172
9.14707
9.15264
9.1583
9.16396
9.16951
9.17489
9.18005
9.18493
9.18953
9.19381
9.19778
9.20143
9.20477
9.20781
9.21054
9.21299
9.21517
9.21707
9.21871
9.2201
9.22124
9.22214
9.2228
9.22322
9.2234
9.22334
9.22303
9.22248
9.22166
9.22056
9.21919
9.21751
9.21551
9.21318
9.21049
9.20741
9.20394
9.20005
9.19572
9.19094
9.1857
9.18
9.17385
9.16727
9.16029
9.15298
9.14542
9.13771
9.12997
9.12237
9.11509
9.10831
9.10224
9.09708
9.09303
9.09023
9.0888
8.79601
8.79751
8.80045
8.80469
8.81005
8.81633
8.82332
8.83079
8.83855
8.84642
8.85426
8.86195
8.86938
8.87648
8.8832
8.88952
8.8954
8.90084
8.90584
8.91041
8.91456
8.91831
8.92166
8.92463
8.92723
8.92947
8.93137
8.93293
8.93416
8.93506
8.93564
8.93589
8.93581
8.9354
8.93464
8.93353
8.93205
8.93017
8.92789
8.92517
8.92199
8.91832
8.91413
8.90939
8.90408
8.89816
8.89162
8.88443
8.87661
8.86815
8.85909
8.84947
8.83937
8.8289
8.8182
8.80744
8.79685
8.78667
8.77718
8.76866
8.76141
8.7557
8.75175
8.74973
8.48307
8.48504
8.48888
8.49441
8.50139
8.50954
8.51856
8.52819
8.53816
8.54824
8.55825
8.56803
8.57747
8.58647
8.59497
8.60294
8.61035
8.6172
8.6235
8.62924
8.63445
8.63915
8.64335
8.64708
8.65034
8.65315
8.65553
8.65749
8.65903
8.66016
8.66089
8.66121
8.66112
8.66061
8.65967
8.65829
8.65644
8.65411
8.65126
8.64787
8.6439
8.63931
8.63407
8.62814
8.62148
8.61405
8.60583
8.59679
8.58693
8.57625
8.56478
8.55259
8.53975
8.52641
8.51274
8.49896
8.48535
8.47222
8.45995
8.4489
8.43948
8.43204
8.42689
8.42425
8.18272
8.18519
8.18999
8.1969
8.20559
8.21569
8.22684
8.23867
8.25088
8.26318
8.27535
8.28721
8.29862
8.30948
8.31971
8.32927
8.33816
8.34635
8.35387
8.36072
8.36694
8.37254
8.37755
8.38199
8.38587
8.38922
8.39206
8.39439
8.39623
8.39758
8.39845
8.39884
8.39874
8.39815
8.39704
8.39541
8.39323
8.39047
8.38711
8.38309
8.37839
8.37294
8.36672
8.35967
8.35173
8.34288
8.33306
8.32226
8.31044
8.29762
8.28382
8.26911
8.25358
8.23738
8.22074
8.20391
8.18722
8.17108
8.15592
8.14224
8.13052
8.12125
8.11482
8.11153
7.89424
7.89725
7.90311
7.91151
7.92202
7.93419
7.94755
7.96166
7.97616
7.99071
8.00505
8.01897
8.03232
8.04498
8.05689
8.06799
8.07828
8.08776
8.09644
8.10435
8.11152
8.11797
8.12374
8.12885
8.13332
8.13717
8.14043
8.14312
8.14524
8.1468
8.14781
8.14827
8.14817
8.1475
8.14624
8.14439
8.1419
8.13876
8.13491
8.13032
8.12493
8.1187
8.11156
8.10346
8.09434
8.08414
8.07281
8.06032
8.04664
8.03175
8.01569
7.99851
7.98032
7.96129
7.94166
7.92174
7.9019
7.88263
7.86445
7.84798
7.83383
7.82259
7.81478
7.81077
7.61696
7.62058
7.6276
7.63761
7.65009
7.66446
7.68015
7.69664
7.71348
7.7303
7.74681
7.76278
7.77805
7.79248
7.806
7.81859
7.83022
7.84091
7.8507
7.85961
7.86767
7.87493
7.88141
7.88715
7.89217
7.8965
7.90016
7.90318
7.90556
7.90733
7.90847
7.90899
7.90889
7.90816
7.90677
7.90471
7.90195
7.89845
7.89417
7.88906
7.88305
7.87608
7.86809
7.85902
7.84878
7.83732
7.82457
7.81048
7.79501
7.77814
7.75988
7.74029
7.71947
7.69762
7.67499
7.65191
7.62884
7.60631
7.58496
7.56552
7.54875
7.53538
7.52607
7.52128
7.35025
7.35455
7.36285
7.37465
7.38927
7.406
7.42415
7.4431
7.46235
7.48147
7.50017
7.51817
7.53532
7.55147
7.56657
7.58057
7.59348
7.60533
7.61616
7.626
7.63491
7.64292
7.65008
7.6564
7.66194
7.66672
7.67076
7.67408
7.67672
7.67867
7.67994
7.68053
7.68044
7.67965
7.67815
7.67591
7.6729
7.66908
7.6644
7.65881
7.65223
7.64459
7.63582
7.62584
7.61457
7.60193
7.58784
7.57224
7.55507
7.5363
7.51591
7.49396
7.47056
7.44588
7.42022
7.39394
7.36753
7.3416
7.3169
7.29429
7.27468
7.25899
7.24802
7.24238
7.09351
7.09857
7.10832
7.12209
7.13905
7.15832
7.17906
7.20058
7.22229
7.24376
7.26464
7.28467
7.30366
7.3215
7.33811
7.35347
7.36759
7.38053
7.39234
7.40306
7.41276
7.42148
7.42926
7.43614
7.44216
7.44735
7.45174
7.45536
7.45823
7.46036
7.46175
7.46241
7.46233
7.46149
7.45989
7.45749
7.45426
7.45015
7.44512
7.4391
7.432
7.42376
7.41427
7.40346
7.39123
7.37748
7.36214
7.34512
7.32634
7.30574
7.2833
7.25905
7.23309
7.20562
7.1769
7.14736
7.11751
7.08803
7.05977
7.03374
7.01106
6.99282
6.98004
6.97344
6.84618
6.8521
6.86348
6.87945
6.89897
6.92097
6.94446
6.96864
6.99289
7.01671
7.03978
7.06181
7.08262
7.10209
7.12016
7.13681
7.15209
7.16605
7.17877
7.19032
7.20075
7.21013
7.2185
7.2259
7.23237
7.23794
7.24266
7.24655
7.24964
7.25194
7.25345
7.25417
7.25411
7.25324
7.25154
7.249
7.24558
7.24122
7.23587
7.22947
7.22191
7.21311
7.20297
7.1914
7.17828
7.16351
7.14701
7.12865
7.10835
7.08602
7.0616
7.03511
7.00664
6.97637
6.94459
6.91173
6.87833
6.84514
6.81311
6.78341
6.75736
6.73633
6.72152
6.71388
6.6077
6.61462
6.62783
6.64626
6.6686
6.69354
6.71993
6.74688
6.7737
6.79991
6.82515
6.84917
6.87176
6.89281
6.91227
6.93015
6.94651
6.96143
6.975
6.98731
6.99844
7.00844
7.01736
7.02523
7.03212
7.03805
7.04307
7.04722
7.05051
7.05297
7.05459
7.05538
7.05534
7.05444
7.05267
7.05
7.04641
7.04183
7.03621
7.02946
7.02149
7.0122
7.00147
6.9892
6.97526
6.95956
6.94197
6.92238
6.90065
6.87667
6.85035
6.82169
6.79075
6.75771
6.72287
6.68664
6.6496
6.61253
6.5765
6.54284
6.51312
6.48899
6.47194
6.46312
6.37756
6.38561
6.40092
6.42211
6.44754
6.47565
6.5051
6.53491
6.56434
6.59294
6.62035
6.64632
6.67065
6.69324
6.71403
6.73307
6.75043
6.76623
6.7806
6.79362
6.80539
6.81597
6.8254
6.83372
6.84099
6.84725
6.85256
6.85694
6.86042
6.86303
6.86476
6.86562
6.86559
6.86467
6.86284
6.86007
6.85632
6.85155
6.84569
6.83865
6.83032
6.82059
6.80933
6.79642
6.78174
6.76517
6.74658
6.72584
6.70279
6.67726
6.64914
6.61837
6.58502
6.54923
6.51132
6.4717
6.43093
6.38983
6.34955
6.31162
6.27788
6.25032
6.23078
6.22065
6.15524
6.16461
6.18232
6.20661
6.23544
6.26695
6.29962
6.33235
6.36443
6.3954
6.42496
6.45286
6.47889
6.50295
6.52501
6.54513
6.56343
6.58004
6.59513
6.60882
6.62118
6.6323
6.64221
6.65095
6.65857
6.66514
6.6707
6.6753
6.67896
6.68171
6.68355
6.68447
6.68447
6.68354
6.68165
6.67879
6.67491
6.66998
6.66391
6.65661
6.64797
6.63786
6.62613
6.61264
6.59728
6.57992
6.56042
6.53862
6.51434
6.48736
6.45752
6.42473
6.38902
6.35053
6.30956
6.26653
6.22197
6.17669
6.13191
6.08936
6.05122
6.01987
5.99755
5.98595
5.94027
5.95115
5.97161
5.99939
6.03197
6.06712
6.10315
6.13887
6.17359
6.20692
6.2386
6.26839
6.29607
6.32156
6.34482
6.36595
6.38509
6.40245
6.4182
6.43249
6.44542
6.45704
6.46739
6.47652
6.48447
6.49131
6.49711
6.50191
6.50574
6.50863
6.51057
6.51155
6.51158
6.51063
6.5087
6.50576
6.50178
6.4967
6.49046
6.48295
6.47405
6.4636
6.45145
6.43745
6.42147
6.40338
6.38304
6.36029
6.33488
6.30657
6.27511
6.24038
6.20236
6.16121
6.11722
6.07077
6.02238
5.97279
5.92326
5.87574
5.83277
5.7972
5.77178
5.75856
5.73216
5.7448
5.76843
5.80014
5.83682
5.87587
5.91539
5.95413
5.99147
6.02712
6.06089
6.09253
6.12183
6.14867
6.17307
6.19512
6.21503
6.23306
6.24941
6.26426
6.27771
6.2898
6.30058
6.31006
6.31831
6.3254
6.33141
6.33639
6.34039
6.3434
6.34544
6.34649
6.34654
6.34559
6.34362
6.34061
6.33654
6.33135
6.32496
6.31728
6.30816
6.29743
6.28491
6.27046
6.25391
6.23516
6.21406
6.19044
6.16403
6.13448
6.1015
6.06491
6.02467
5.9809
5.93391
5.88409
5.83185
5.77783
5.7233
5.67042
5.62215
5.5819
5.55305
5.53803
5.53045
5.54515
5.57241
5.60857
5.64974
5.69292
5.73604
5.77782
5.81773
5.85564
5.89145
5.92492
5.95578
5.98393
6.00938
6.03227
6.05287
6.07148
6.08839
6.10375
6.11768
6.13022
6.1414
6.1512
6.15972
6.16703
6.17324
6.17839
6.18253
6.18567
6.18781
6.18892
6.189
6.18805
6.18604
6.18298
6.17883
6.17354
6.16704
6.15923
6.14993
6.13897
6.12614
6.11127
6.09422
6.07485
6.05307
6.02868
6.00137
5.97071
5.93632
5.89796
5.85555
5.80921
5.75927
5.70615
5.65008
5.59155
5.53177
5.47313
5.41905
5.3736
5.34093
5.32393
5.33469
5.35176
5.38325
5.42442
5.47047
5.51803
5.56484
5.60962
5.65202
5.6921
5.72993
5.7652
5.79757
5.82696
5.85341
5.87705
5.89824
5.91737
5.93476
5.95059
5.96497
5.97795
5.9895
5.99961
6.00836
6.01586
6.02224
6.02756
6.03184
6.0351
6.03733
6.03851
6.03862
6.03766
6.03563
6.03251
6.02829
6.02293
6.01635
6.00844
5.99902
5.98786
5.97476
5.95953
5.94202
5.92209
5.89968
5.87463
5.84654
5.81489
5.77919
5.73915
5.69466
5.64578
5.59295
5.5366
5.47678
5.41371
5.34843
5.28359
5.22317
5.17191
5.13502
5.11587
5.14444
5.16426
5.20065
5.24748
5.2988
5.35095
5.40154
5.44925
5.49402
5.53617
5.57597
5.61302
5.64687
5.67744
5.7048
5.72911
5.7508
5.77035
5.78818
5.80445
5.81925
5.83264
5.84455
5.85494
5.86389
5.87156
5.8781
5.88356
5.88797
5.89135
5.89368
5.89491
5.89506
5.8941
5.89204
5.88888
5.88461
5.87918
5.87254
5.86457
5.85506
5.84377
5.83044
5.81489
5.79696
5.77651
5.75353
5.72791
5.69918
5.66667
5.62977
5.58815
5.54165
5.49026
5.43459
5.37514
5.3117
5.24408
5.17306
5.10159
5.03422
4.97648
4.93493
4.91348
4.95926
4.98225
5.02433
5.07756
5.13454
5.19147
5.24588
5.29642
5.34339
5.38749
5.42924
5.46808
5.50334
5.53504
5.56325
5.58812
5.6102
5.6301
5.64831
5.66498
5.68018
5.69398
5.70625
5.71688
5.72601
5.73381
5.74049
5.74609
5.75062
5.75412
5.75654
5.75784
5.75801
5.75705
5.75496
5.75176
5.74745
5.74197
5.73529
5.72729
5.71775
5.70637
5.69286
5.67703
5.65872
5.63776
5.61426
5.58818
5.55893
5.5257
5.4877
5.44459
5.39617
5.34229
5.28381
5.22145
5.15456
5.08246
5.00547
4.9269
4.85198
4.78696
4.74031
4.71642
4.77874
4.80534
4.85407
4.91453
4.9775
5.03938
5.09765
5.15084
5.19982
5.2457
5.2894
5.33005
5.36666
5.39942
5.42843
5.45375
5.47612
5.49627
5.51483
5.53189
5.54744
5.56165
5.57429
5.58514
5.5944
5.60231
5.60911
5.61484
5.61948
5.62309
5.62561
5.62697
5.62717
5.62621
5.6241
5.62086
5.61651
5.611
5.60429
5.5963
5.58677
5.57535
5.56168
5.54561
5.52697
5.50552
5.48151
5.45507
5.42545
5.39167
5.35266
5.30816
5.25792
5.20153
5.14025
5.07519
5.00511
4.92869
4.84548
4.75933
4.67623
4.60297
4.55078
4.52439
4.60245
4.63313
4.68966
4.7583
4.82751
4.89446
4.95663
5.01224
5.06298
5.11045
5.15613
5.19865
5.23652
5.2703
5.30005
5.3257
5.34825
5.36856
5.38745
5.40486
5.42074
5.43538
5.44839
5.45942
5.46877
5.47675
5.48367
5.48952
5.49427
5.498
5.50062
5.50204
5.50227
5.50131
5.49916
5.49588
5.49151
5.48596
5.47923
5.4713
5.46183
5.45042
5.43662
5.42034
5.40141
5.37945
5.35494
5.32827
5.29843
5.26426
5.22432
5.17853
5.12661
5.06763
5.00352
4.93606
4.8631
4.78261
4.69292
4.5987
4.50685
4.42414
4.366
4.33714
4.43003
4.4652
4.53094
4.60887
4.6844
4.75652
4.82264
4.88035
4.93258
4.98137
5.02912
5.07362
5.11263
5.14737
5.17784
5.20369
5.2263
5.24665
5.26586
5.28361
5.29978
5.31487
5.32828
5.33946
5.34886
5.35686
5.3639
5.36986
5.3747
5.37855
5.38129
5.38276
5.38302
5.38206
5.37987
5.37654
5.37217
5.36659
5.35985
5.35201
5.34263
5.3313
5.31738
5.30092
5.28177
5.25925
5.23422
5.20745
5.17756
5.14318
5.10237
5.05538
5.00196
4.94027
4.87323
4.80374
4.7283
4.64412
4.54763
4.44482
4.34374
4.25005
4.18562
4.15446
4.2611
4.3011
4.37777
4.46626
4.54796
4.62532
4.69551
4.75489
4.8083
4.85809
4.90806
4.95473
4.99468
5.03034
5.06155
5.08742
5.10997
5.13024
5.14979
5.1679
5.18427
5.19987
5.21373
5.22498
5.23439
5.24236
5.24952
5.25561
5.26051
5.26451
5.26736
5.26889
5.26916
5.26821
5.26598
5.26259
5.25822
5.25261
5.24585
5.23815
5.22892
5.21772
5.2037
5.18708
5.16778
5.14465
5.11903
5.09232
5.06252
5.02818
4.98651
4.93839
4.88376
4.81913
4.74896
4.67792
4.60042
4.51313
4.40945
4.29749
4.18693
4.08021
4.00931
3.97619
4.09535
4.14031
4.23008
4.33064
4.41797
4.50065
4.57511
4.63557
4.68987
4.7402
4.79269
4.84178
4.88237
4.91893
4.95093
4.97661
4.99901
5.01903
5.03898
5.05746
5.07392
5.09012
5.1045
5.11575
5.12511
5.13299
5.1403
5.14653
5.15145
5.15561
5.1586
5.16016
5.16046
5.15951
5.15722
5.15377
5.14943
5.14378
5.13698
5.12947
5.12043
5.10945
5.09529
5.07853
5.05923
5.03535
5.00902
4.98259
4.95304
4.91902
4.87643
4.82724
4.77181
4.70391
4.63024
4.55832
4.4792
4.38963
4.27822
4.15649
4.0366
3.91404
3.83674
3.80223
3.93252
3.98225
4.08782
4.20225
4.29413
4.38225
4.46135
4.52208
4.57703
4.62729
4.68271
4.73462
4.7754
4.81287
4.8458
4.87101
4.89316
4.91273
4.9332
4.95208
4.96847
4.98538
5.00039
5.01151
5.0208
5.0285
5.036
5.04237
5.04728
5.05162
5.05477
5.05635
5.05667
5.05573
5.05338
5.04983
5.04557
5.03986
5.03297
5.02573
5.0169
5.00626
4.99192
4.97502
4.9559
4.93111
4.90387
4.87798
4.8488
4.8155
4.77183
4.72159
4.666
4.59431
4.51657
4.44468
4.36432
4.27367
4.15375
4.02149
3.89312
3.75077
3.6676
3.63256
3.77244
3.82618
3.95102
4.08148
4.17607
4.26984
4.35422
4.4141
4.46956
4.51889
4.57788
4.63316
4.67342
4.71187
4.74598
4.77032
4.79221
4.81102
4.83221
4.85156
4.86761
4.88542
4.9012
4.91202
4.92122
4.92863
4.9364
4.94294
4.94774
4.95233
4.95566
4.95723
4.95757
4.95666
4.95421
4.95053
4.94641
4.94062
4.93358
4.9267
4.9181
4.90794
4.89333
4.87626
4.85763
4.83167
4.80322
4.77828
4.74952
4.71745
4.67241
4.62106
4.56627
4.49006
4.40738
4.33678
4.2554
4.16539
4.03584
3.89208
3.75717
3.58944
3.50162
3.46723
3.61502
3.6712
3.81977
3.96891
4.06326
4.16313
4.25377
4.31122
4.36732
4.41447
4.47796
4.53737
4.57607
4.61566
4.65133
4.67425
4.69594
4.7136
4.73582
4.75573
4.77105
4.79003
4.80678
4.81705
4.82617
4.83312
4.84128
4.84802
4.8526
4.8575
4.86106
4.86257
4.86293
4.86207
4.85952
4.85564
4.85175
4.84586
4.83856
4.83217
4.82378
4.81432
4.79927
4.78198
4.76428
4.73681
4.70673
4.68328
4.65488
4.62476
4.57788
4.52523
4.47266
4.39092
4.30201
4.23449
4.15196
4.06507
3.92425
3.76763
3.62984
3.42871
3.3386
3.30636
3.46036
3.51618
3.69423
3.86533
3.95498
4.06179
4.16018
4.21295
4.27022
4.31343
4.38273
4.44732
4.48294
4.52398
4.5618
4.58251
4.6042
4.62012
4.64384
4.66446
4.67846
4.699
4.717
4.72634
4.73547
4.74174
4.75046
4.75744
4.76163
4.76696
4.77077
4.77217
4.77255
4.77177
4.76909
4.76493
4.76141
4.75537
4.74765
4.74195
4.73369
4.72523
4.70953
4.69188
4.67576
4.64633
4.61399
4.59282
4.56453
4.53739
4.48794
4.43361
4.38532
4.29668
4.1997
4.13781
4.05339
3.97314
3.81873
3.64725
3.51278
3.26683
3.17844
3.15016
3.30869
3.35969
3.57467
3.7718
3.8503
3.96547
4.07379
4.1187
4.17834
4.21506
4.292
4.3632
4.39353
4.43655
4.47736
4.49473
4.51689
4.53023
4.55611
4.57765
4.58951
4.61214
4.63176
4.63963
4.64896
4.6542
4.66375
4.67104
4.67459
4.6805
4.68462
4.68581
4.68623
4.68557
4.68275
4.67818
4.67522
4.66898
4.66061
4.65588
4.64758
4.64055
4.62387
4.60564
4.59204
4.56002
4.52458
4.50682
4.47808
4.45538
4.40228
4.34561
4.30455
4.20713
4.0995
4.0469
3.95886
3.89026
3.719
3.52964
3.40839
3.10138
3.02123
2.9989
3.16052
3.19992
3.46145
3.68971
3.74795
3.8738
3.99511
4.02767
4.09191
4.11853
4.20561
4.2853
4.30727
4.35309
4.39808
4.41052
4.43397
4.44352
4.47252
4.49525
4.50381
4.52929
4.551
4.55666
4.5665
4.57026
4.581
4.58868
4.59123
4.59796
4.60245
4.60331
4.60377
4.60331
4.60032
4.59514
4.59302
4.58652
4.57717
4.57381
4.56519
4.5602
4.54207
4.52292
4.51314
4.47772
4.438
4.42528
4.39506
4.37885
4.32062
4.26051
4.23082
4.12216
4.0003
3.96218
3.86728
3.81737
3.62476
3.41299
3.32006
2.92916
2.86734
2.85288
3.01661
3.03459
3.35507
3.62084
3.64626
3.7864
3.92491
3.93885
4.01141
4.02282
4.12343
4.21408
4.22346
4.27336
4.32413
4.32939
4.35548
4.35953
4.39295
4.41729
4.42092
4.45031
4.4747
4.4771
4.48802
4.48961
4.50207
4.51023
4.51131
4.51918
4.5241
4.52446
4.525
4.52481
4.52164
4.51558
4.51469
4.50786
4.49708
4.49566
4.48621
4.48412
4.46394
4.4433
4.43916
4.39929
4.35371
4.34833
4.3149
4.30807
4.24265
4.17744
4.1648
4.04167
3.90073
3.88439
3.77719
3.75575
3.53574
3.29473
3.25245
2.74588
2.71751
2.71244
)
;

boundaryField
{
    left
    {
        type            zeroGradient;
    }
    right
    {
        type            zeroGradient;
    }
    interface
    {
        type            fixedValue;
        value           nonuniform List<scalar> 
64
(
2.94579
2.94579
3.30453
3.59353
3.59353
3.74374
3.8939
3.8939
3.97368
3.97368
4.08354
4.18143
4.18143
4.23437
4.28919
4.28919
4.3177
4.3177
4.35431
4.37974
4.37974
4.41184
4.43799
4.43799
4.44991
4.44991
4.46361
4.47208
4.47208
4.48076
4.48593
4.48593
4.48653
4.48653
4.48327
4.47657
4.47657
4.46953
4.45769
4.45769
4.44743
4.44743
4.42577
4.40396
4.40396
4.36111
4.31146
4.31146
4.27503
4.27503
4.20454
4.13545
4.13545
4.0028
3.84877
3.84877
3.73089
3.73089
3.49279
3.23168
3.23168
2.64366
2.64366
2.64366
)
;
    }
    bottom
    {
        type            fixedValue;
        value           uniform 10;
    }
    defaultFaces
    {
        type            empty;
    }
}


// ************************************************************************* //
