/*--------------------------------*- C++ -*----------------------------------*\
| =========                 |                                                 |
| \\      /  F ield         | OpenFOAM: The Open Source CFD Toolbox           |
|  \\    /   O peration     | Version:  5.x                                   |
|   \\  /    A nd           | Web:      www.OpenFOAM.org                      |
|    \\/     M anipulation  |                                                 |
\*---------------------------------------------------------------------------*/
FoamFile
{
    version     2.0;
    format      ascii;
    class       volScalarField;
    location    "3.7";
    object      gradTy;
}
// * * * * * * * * * * * * * * * * * * * * * * * * * * * * * * * * * * * * * //

dimensions      [0 -1 0 1 0 0 0];

internalField   nonuniform List<scalar> 
6300
(
32275.7
32227.1
32178.5
32130
32081.6
32033.2
31985
31936.9
31888.9
31841.2
31793.6
31746.3
31699.1
31652.3
31605.6
-0.0154874
-0.0465286
-0.0777557
-0.109251
-0.141031
-0.173017
-0.20502
-0.236721
-0.267681
-0.29736
-0.325181
-0.350629
-0.373382
-0.39346
-0.411349
-0.0257348
-0.0773351
-0.129294
-0.181774
-0.234827
-0.288351
-0.342041
-0.395369
-0.447568
-0.497675
-0.544619
-0.587392
-0.625292
-0.658211
-0.686915
-0.0358584
-0.107784
-0.180304
-0.25371
-0.328139
-0.403499
-0.479406
-0.555121
-0.629522
-0.701124
-0.768195
-0.828992
-0.882144
-0.927144
-0.964878
-0.0457755
-0.137644
-0.230432
-0.32463
-0.420524
-0.518107
-0.616969
-0.716195
-0.814282
-0.909113
-0.998054
-1.07825
-1.14715
-1.20336
-1.24753
-0.0553675
-0.166571
-0.279138
-0.393837
-0.511202
-0.631414
-0.754143
-0.878383
-1.00227
-1.12296
-1.23663
-1.33875
-1.42482
-1.49157
-1.53868
-0.0644902
-0.194131
-0.325708
-0.460372
-0.599028
-0.742195
-0.889798
-1.04091
-1.19344
-1.34381
-1.48673
-1.61529
-1.72178
-1.7994
-1.84521
-0.072954
-0.219753
-0.369192
-0.522912
-0.682341
-0.848534
-1.02194
-1.20201
-1.38677
-1.5721
-1.75115
-1.91388
-2.04757
-2.13899
-2.17924
-0.0805262
-0.242734
-0.408392
-0.579738
-0.758881
-0.947657
-1.14738
-1.35842
-1.5795
-1.80666
-2.03185
-2.24147
-2.41556
-2.52968
-2.56213
-0.0869421
-0.262261
-0.441896
-0.628759
-0.825776
-1.03582
-1.2615
-1.50477
-1.76612
-2.04313
-2.32808
-2.60453
-2.84344
-3.00192
-3.0317
-0.0919217
-0.277467
-0.468166
-0.667615
-0.879635
-1.10832
-1.358
-1.63302
-1.93705
-2.2716
-2.63273
-3.00503
-3.35163
-3.60275
-3.65616
-0.0951977
-0.287514
-0.485678
-0.69389
-0.916813
-1.1598
-1.42914
-1.73221
-2.07742
-2.47341
-2.92615
-3.43113
-3.95518
-4.4012
-4.56463
-0.0965515
-0.291706
-0.493135
-0.70544
-0.933908
-1.18492
-1.46653
-1.78921
-2.16695
-2.61841
-3.16723
-3.83805
-4.63667
-5.4822
-6.02627
-0.0958518
-0.289618
-0.489707
-0.700812
-0.928438
-1.17943
-1.4628
-1.7911
-2.18271
-2.66596
-3.28621
-4.1171
-5.27119
-6.86465
-8.66576
-0.0930878
-0.2812
-0.475251
-0.679652
-0.899585
-1.14153
-1.41412
-1.72963
-2.10677
-2.57643
-3.19445
-4.0729
-5.46638
-8.03953
-13.8099
31563.2
31524.7
31486.5
31448.5
31410.7
31373.1
31335.8
31298.7
31261.9
31225.3
31189.1
31153.1
31117.5
31082.2
31047.3
31012.7
30978.4
30944.6
30911.1
30878
30845.3
30812.9
30780.9
30749.2
30717.9
30686.9
30656.2
30625.8
30595.6
30565.8
30536.2
30506.8
30477.6
30448.7
30419.9
30391.3
30362.8
30334.6
30306.4
30278.4
30250.5
30222.8
30195.1
30167.6
30140.2
30112.9
30085.7
30058.6
30031.6
30004.7
29977.8
29951.1
29924.3
29897.7
29871.1
29844.5
29817.9
29791.4
29764.8
29738.2
29711.6
29685
29658.3
29631.5
29604.7
29577.8
29550.9
29523.8
29496.7
29469.5
29442.1
29414.6
29387.1
29359.3
29331.5
29303.5
29275.4
29247.1
29218.7
29190.1
29161.3
29132.3
29103.2
29073.9
29044.4
29014.6
28984.7
28954.6
28924.2
28893.7
-0.426665
-0.440711
-0.455856
-0.473069
-0.493161
-0.516634
-0.54357
-0.57358
-0.60584
-0.639196
-0.672322
-0.703897
-0.732746
-0.757945
-0.778835
-0.795
-0.806189
-0.812253
-0.813101
-0.808694
-0.799074
-0.784408
-0.765011
-0.741357
-0.714052
-0.683792
-0.651317
-0.617377
-0.582711
-0.54803
-0.51401
-0.481257
-0.450278
-0.421447
-0.39499
-0.370997
-0.349451
-0.330281
-0.31339
-0.298677
-0.28601
-0.27519
-0.265898
-0.257669
-0.249892
-0.241861
-0.232856
-0.222228
-0.20949
-0.194368
-0.176811
-0.15697
-0.135151
-0.111758
-0.0872536
-0.0621249
-0.0368587
-0.0119181
0.0122903
0.035453
0.0573808
0.0780208
0.0974417
0.115793
0.133253
0.149977
0.166078
0.181621
0.196656
0.211248
0.225501
0.239559
0.25358
0.267695
0.281974
0.296408
0.31092
0.325398
0.339734
0.353843
0.367666
0.381131
0.394104
0.406344
0.417479
0.427012
0.434369
0.438966
0.440278
0.4379
-0.710975
-0.732853
-0.756568
-0.783983
-0.816685
-0.855691
-0.90121
-0.952547
-1.00816
-1.06587
-1.1232
-1.1777
-1.22727
-1.27033
-1.30584
-1.33319
-1.35209
-1.36236
-1.36384
-1.35644
-1.34015
-1.31521
-1.28214
-1.24176
-1.19515
-1.14355
-1.08824
-1.0305
-0.971597
-0.912732
-0.855074
-0.799689
-0.747471
-0.699068
-0.65484
-0.614882
-0.5791
-0.54731
-0.519336
-0.495035
-0.474257
-0.456745
-0.442014
-0.429278
-0.417449
-0.405223
-0.39125
-0.374319
-0.353537
-0.328421
-0.298926
-0.265378
-0.22837
-0.188649
-0.147035
-0.104379
-0.0615313
-0.019316
0.021531
0.0604383
0.0970717
0.131367
0.163502
0.193811
0.222664
0.250367
0.277099
0.30293
0.32789
0.35205
0.375586
0.398776
0.421946
0.445372
0.469195
0.493383
0.517758
0.542073
0.566111
0.58974
0.612912
0.635585
0.657613
0.678633
0.698006
0.714833
0.728049
0.736561
0.739397
0.73583
-0.995199
-1.02226
-1.05187
-1.08719
-1.13104
-1.18527
-1.25037
-1.32525
-1.40735
-1.49299
-1.57803
-1.65849
-1.73107
-1.79349
-1.84445
-1.88344
-1.91031
-1.92498
-1.92726
-1.91684
-1.89356
-1.8576
-1.80966
-1.751
-1.68331
-1.60851
-1.52851
-1.44518
-1.36028
-1.27555
-1.19272
-1.11341
-1.03902
-0.970528
-0.908393
-0.852609
-0.802849
-0.758697
-0.719846
-0.686173
-0.657657
-0.634148
-0.615111
-0.59944
-0.585435
-0.570961
-0.553762
-0.531822
-0.503686
-0.468646
-0.426745
-0.37864
-0.325368
-0.268138
-0.208195
-0.146785
-0.0851728
-0.0246244
0.033682
0.0888133
0.140243
0.187936
0.232303
0.274032
0.31384
0.352258
0.389518
0.425596
0.460374
0.493848
0.526262
0.558115
0.590035
0.622566
0.655978
0.690176
0.724764
0.759229
0.793156
0.826374
0.858949
0.891039
0.922643
0.95336
0.982262
1.00792
1.02857
1.0424
1.04781
1.04361
-1.28019
-1.30807
-1.33898
-1.37819
-1.4305
-1.49926
-1.58553
-1.68767
-1.80151
-1.92106
-2.03957
-2.15073
-2.24963
-2.33327
-2.40046
-2.45128
-2.48625
-2.50564
-2.50913
-2.49596
-2.46543
-2.41743
-2.35282
-2.27346
-2.18196
-2.08118
-1.97384
-1.86237
-1.74899
-1.63593
-1.52558
-1.42036
-1.3224
-1.23315
-1.15313
-1.082
-1.01887
-0.962807
-0.913262
-0.870261
-0.834229
-0.805503
-0.783762
-0.767613
-0.754512
-0.741049
-0.723534
-0.698685
-0.664225
-0.619201
-0.563955
-0.499801
-0.428533
-0.352005
-0.271937
-0.189956
-0.107759
-0.0271817
0.0499277
0.122041
0.188319
0.248818
0.304432
0.356549
0.406551
0.455354
0.503184
0.54968
0.594291
0.636735
0.677314
0.716936
0.756828
0.798085
0.841231
0.88602
0.931572
0.976793
1.02087
1.06359
1.10535
1.14687
1.18864
1.23041
1.27091
1.30793
1.33864
1.36012
1.36984
1.36598
-1.56772
-1.58944
-1.61407
-1.65025
-1.70621
-1.78797
-1.89776
-2.03316
-2.18739
-2.35057
-2.51163
-2.66055
-2.7901
-2.89666
-2.97997
-3.04187
-3.08456
-3.10913
-3.11492
-3.10002
-3.0624
-3.00113
-2.91715
-2.81336
-2.69392
-2.56324
-2.42507
-2.28227
-2.13718
-1.99236
-1.851
-1.71681
-1.5932
-1.48243
-1.38503
-1.29983
-1.22469
-1.1575
-1.09723
-1.04429
-1.00026
-0.966788
-0.944352
-0.931395
-0.92411
-0.916976
-0.903872
-0.879398
-0.839991
-0.784491
-0.714017
-0.631233
-0.539301
-0.441003
-0.338469
-0.233479
-0.128052
-0.0247882
0.0733221
0.163626
0.244666
0.316684
0.381545
0.442057
0.500933
0.559799
0.618713
0.676424
0.731272
0.782251
0.829692
0.875311
0.9216
0.97083
1.02407
1.08071
1.1388
1.19596
1.25049
1.30213
1.35206
1.40231
1.45458
1.50923
1.56455
1.61701
1.66196
1.69473
1.71138
1.70922
-1.86193
-1.86659
-1.87246
-1.89374
-1.94469
-2.03626
-2.17301
-2.35143
-2.56032
-2.78304
-3.00106
-3.19817
-3.36357
-3.49344
-3.59021
-3.66001
-3.70888
-3.73955
-3.75039
-3.73669
-3.69332
-3.61741
-3.50991
-3.37566
-3.22194
-3.05595
-2.88285
-2.70534
-2.52486
-2.34366
-2.16598
-1.99787
-1.84537
-1.71234
-1.59922
-1.50304
-1.41891
-1.34212
-1.27049
-1.20536
-1.15096
-1.11204
-1.09115
-1.08688
-1.09335
-1.10137
-1.10044
-1.08148
-1.03879
-0.971207
-0.881666
-0.775706
-0.659101
-0.53597
-0.408405
-0.277502
-0.1451
-0.0148441
0.108086
0.218682
0.314132
0.394981
0.465048
0.530047
0.595453
0.664297
0.736097
0.807412
0.873947
0.932982
0.984812
1.03284
1.08226
1.13792
1.2021
1.27344
1.3475
1.41901
1.48438
1.54322
1.59844
1.65492
1.71722
1.78715
1.86242
1.93699
2.00292
2.05261
2.0801
2.08154
-2.17126
-2.14189
-2.10856
-2.0944
-2.12449
-2.21934
-2.38806
-2.62564
-2.91315
-3.22206
-3.5204
-3.78121
-3.98798
-4.13764
-4.23902
-4.30801
-4.35913
-4.39821
-4.42091
-4.41575
-4.37079
-4.27883
-4.14082
-3.96565
-3.76723
-3.55853
-3.3466
-3.13225
-2.91317
-2.68947
-2.46675
-2.25601
-2.06904
-1.91311
-1.78851
-1.68843
-1.60204
-1.5188
-1.43386
-1.35045
-1.27881
-1.23075
-1.21347
-1.2263
-1.2598
-1.29804
-1.32241
-1.31711
-1.27285
-1.18892
-1.07233
-0.934876
-0.787664
-0.636687
-0.482511
-0.323046
-0.158417
0.00628886
0.161256
0.296189
0.405266
0.489444
0.55649
0.618088
0.685657
0.765168
0.854803
0.9459
1.02804
1.0947
1.14601
1.18896
1.23451
1.29332
1.37041
1.46278
1.5604
1.65143
1.7282
1.79002
1.8435
1.89964
1.96935
2.05782
2.16172
2.2698
2.36767
2.44284
2.48667
2.49424
-2.51229
-2.42273
-2.31689
-2.23111
-2.2108
-2.29576
-2.50364
-2.82761
-3.23481
-3.6759
-4.0934
-4.44164
-4.69416
-4.85091
-4.93395
-4.9812
-5.02617
-5.07988
-5.13092
-5.1515
-5.1153
-5.00588
-4.82453
-4.58838
-4.32655
-4.06497
-3.81302
-3.56512
-3.30729
-3.03296
-2.74937
-2.47898
-2.24703
-2.06779
-1.94147
-1.85308
-1.77958
-1.69684
-1.59391
-1.47746
-1.37156
-1.30395
-1.29122
-1.33473
-1.41818
-1.51342
-1.58581
-1.60755
-1.5627
-1.4523
-1.29169
-1.10671
-0.920259
-0.740607
-0.562825
-0.374615
-0.170424
0.0428667
0.244703
0.412356
0.533686
0.610006
0.657201
0.698951
0.760077
0.852871
0.972803
1.09868
1.20578
1.27987
1.32058
1.34266
1.36898
1.42367
1.51798
1.64583
1.78398
1.90558
1.99472
2.04995
2.08583
2.12588
2.19551
2.30727
2.45595
2.61826
2.76595
2.87904
2.94621
2.96325
-2.91688
-2.72682
-2.49613
-2.27335
-2.14526
-2.19488
-2.45173
-2.90938
-3.50728
-4.1633
-4.76568
-5.23947
-5.53777
-5.66979
-5.67991
-5.6571
-5.68002
-5.76474
-5.88415
-5.96831
-5.96453
-5.83577
-5.5864
-5.24731
-4.88466
-4.55665
-4.27271
-4.01136
-3.7242
-3.3888
-3.01197
-2.64554
-2.34805
-2.14516
-2.03868
-1.99512
-1.96923
-1.90274
-1.7722
-1.58803
-1.40787
-1.29678
-1.28665
-1.38425
-1.55817
-1.76027
-1.9207
-1.9924
-1.94548
-1.78646
-1.54463
-1.27912
-1.04149
-0.840245
-0.65655
-0.447589
-0.193918
0.0975613
0.378999
0.596862
0.728558
0.774145
0.767393
0.753549
0.790531
0.90312
1.08386
1.28012
1.43264
1.5147
1.52356
1.4918
1.46413
1.49851
1.61876
1.81551
2.03283
2.2079
2.31144
2.33908
2.32347
2.31081
2.36229
2.50477
2.73175
2.98889
3.21511
3.38237
3.47885
3.51061
-3.44469
-3.0893
-2.66385
-2.17918
-1.82379
-1.79559
-2.11067
-2.78916
-3.69606
-4.72795
-5.62317
-6.29006
-6.62089
-6.6643
-6.47341
-6.26727
-6.24502
-6.39978
-6.68828
-6.91192
-6.9939
-6.83953
-6.4777
-5.94041
-5.39314
-4.98516
-4.7001
-4.49506
-4.21085
-3.80459
-3.25992
-2.71319
-2.31321
-2.08406
-2.04563
-2.11214
-2.21774
-2.20132
-2.02817
-1.69333
-1.34526
-1.14477
-1.12747
-1.32443
-1.65817
-2.06769
-2.384
-2.54871
-2.49034
-2.24058
-1.83234
-1.41211
-1.11102
-0.915323
-0.787368
-0.58566
-0.272579
0.165982
0.604104
0.904708
1.04668
1.01291
0.887056
0.734222
0.711376
0.854506
1.17185
1.52383
1.76025
1.85426
1.78433
1.63437
1.46929
1.44903
1.60878
1.95501
2.34194
2.61269
2.73693
2.68996
2.55635
2.4029
2.39754
2.58014
2.9637
3.40363
3.7488
3.98718
4.10427
4.1655
-4.20737
-3.55262
-2.91691
-1.89898
-1.03143
-0.902364
-1.24674
-2.34054
-3.70544
-5.49001
-6.81019
-7.82535
-8.1188
-7.99716
-7.28991
-6.61377
-6.55633
-6.84356
-7.58713
-8.06097
-8.36513
-8.14364
-7.62338
-6.64966
-5.70292
-5.23862
-5.01432
-5.09488
-4.87541
-4.42195
-3.51318
-2.57195
-2.03493
-1.75093
-1.90416
-2.17563
-2.64481
-2.72854
-2.52004
-1.82082
-1.07338
-0.732326
-0.663208
-1.07115
-1.65261
-2.51301
-3.06935
-3.4301
-3.31473
-2.92691
-2.14143
-1.37767
-1.033
-0.897101
-1.02867
-0.888418
-0.536269
0.230665
1.02284
1.43656
1.61346
1.37985
1.04113
0.523287
0.388803
0.550615
1.20561
1.92959
2.28866
2.4256
2.15614
1.79455
1.26178
1.13631
1.32631
2.032
2.81458
3.22477
3.40536
3.16206
2.81437
2.27841
2.15891
2.36297
3.1115
3.95191
4.43348
4.76398
4.80751
4.97049
-5.44536
-3.98863
-3.72039
-1.40206
0.824617
0.672933
0.696629
-1.50125
-3.11026
-6.92052
-8.43617
-10.3996
-10.2141
-10.1729
-8.0612
-6.0689
-6.37087
-6.62979
-8.87403
-9.45393
-10.4929
-9.87748
-9.42151
-7.3195
-5.3174
-5.14586
-4.88898
-6.12615
-5.87633
-5.69431
-3.8125
-1.84789
-1.39154
-0.787483
-1.59171
-1.95371
-3.6262
-3.67586
-3.71775
-2.01691
-0.215417
0.0725866
0.488879
-0.567172
-1.24455
-3.39531
-4.03548
-4.99621
-4.53049
-4.18493
-2.41824
-0.738758
-0.653317
-0.492742
-1.66039
-1.49531
-1.39623
0.260038
1.98757
2.3105
2.77238
1.89922
1.45421
-0.238622
-0.359364
-0.462396
1.14105
2.86187
3.13794
3.58321
2.6617
2.20228
0.468838
0.370392
0.302252
1.99924
3.82442
4.1684
4.68513
3.78549
3.34449
1.5552
1.45528
1.36264
3.1278
5.01768
5.33641
5.9548
5.33957
6.03601
-8.02069
-2.71303
-7.47587
-0.773015
6.10572
1.99595
5.83938
-1.50967
0.655047
-11.655
-9.41702
-16.0681
-12.1011
-15.33
-8.66011
-2.21989
-6.247
-3.55672
-12.5572
-10.1854
-15.0024
-11.3813
-13.5895
-7.84491
-2.2953
-5.17543
-2.6116
-9.29812
-6.77897
-9.41378
-4.23038
1.04875
-0.960152
2.20465
-1.91538
0.156064
-6.94378
-4.63361
-7.42427
-2.35713
2.82277
0.693595
3.76202
-0.607655
1.28605
-6.45207
-4.53912
-8.61556
-5.57235
-7.48848
-2.56854
2.19653
-0.38087
1.82524
-4.21026
-2.00617
-4.49755
0.187779
4.97594
2.98537
5.85479
1.80306
3.66519
-3.26331
-1.13201
-3.9317
0.908504
5.87559
3.74459
6.71
2.50285
4.44563
-2.67744
-0.438162
-3.26254
1.78286
6.96814
4.86424
8.00538
3.74943
5.81707
-1.59975
0.742101
-2.31201
2.96535
8.34673
5.80866
8.92281
3.98369
7.96696
-17.3941
13.0643
-27.7417
-0.397097
27.2104
-8.13364
27.0994
-15.2179
25.264
-37.3387
2.40238
-37.027
-3.62632
-34.7415
-8.92853
16.7018
-15.7964
16.3508
-32.6166
-0.565672
-31.663
-4.49141
-29.2099
-8.09012
12.8651
-13.0448
12.9858
-25.7269
-0.260505
-24.3922
-4.7868
14.4395
-7.97965
15.6862
-11.1556
15.4717
-23.8127
1.75295
-22.447
-2.86077
16.385
-6.17104
17.745
-9.66856
17.6854
-23.4076
3.58069
-22.4885
0.52591
-20.6374
-2.49724
15.7035
-6.99814
16.0097
-18.6266
4.24293
-17.9349
-0.0340941
17.7241
-3.33973
18.9021
-6.81065
18.5331
-19.3357
5.19439
-18.404
0.491686
19.109
-2.98912
20.1637
-6.51337
19.7422
-19.3069
6.04348
-18.1611
1.3637
20.6069
-1.99404
21.9761
-5.39385
21.946
-18.8083
7.79795
-17.9849
2.65213
23.0788
-1.85917
23.4866
-10.2214
15.3857
28859.8
28822.6
28785.1
28747.4
28709.4
28671.1
28632.6
28593.9
28555.1
28516.1
28477
28437.8
28398.5
28359.1
28319.7
0.430965
0.417727
0.399137
0.375832
0.348654
0.31852
0.28632
0.252838
0.218707
0.184395
0.150208
0.116313
0.082761
0.0495152
0.0164797
0.724396
0.702013
0.670352
0.630606
0.584308
0.533109
0.478578
0.422076
0.364678
0.307157
0.250003
0.193463
0.137592
0.0822968
0.0273868
1.02773
0.995573
0.949652
0.891925
0.824855
0.751019
0.672804
0.592212
0.510777
0.429559
0.34919
0.26995
0.19185
0.114696
0.0381599
1.34576
1.30278
1.24065
1.16249
1.07207
0.973224
0.869337
0.763138
0.656621
0.551084
0.44723
0.345293
0.245161
0.146476
0.0487187
1.6847
1.6291
1.54764
1.44525
1.32767
1.20041
1.06813
0.934338
0.801451
0.670899
0.543332
0.418817
0.297017
0.177325
0.0589577
2.05252
1.98132
1.87559
1.74321
1.5929
1.43255
1.26834
1.10458
0.943907
0.787701
0.636356
0.489606
0.346756
0.206842
0.0687432
2.4601
2.36826
2.23033
2.0592
1.86821
1.66852
1.46804
1.27163
1.08184
0.899602
0.724757
0.556477
0.393547
0.234538
0.0779131
2.92279
2.80173
2.61864
2.39537
2.15249
1.90541
1.66363
1.43196
1.21214
1.00405
0.806553
0.617972
0.436399
0.259839
0.0862805
3.46302
3.29779
3.04764
2.75164
2.44149
2.13738
1.84926
1.58046
1.33065
1.09785
0.879379
0.672424
0.474216
0.282125
0.0936445
4.11623
3.87854
3.52236
3.12204
2.72491
2.35384
2.01589
1.71005
1.43215
1.17726
0.940644
0.718088
0.50589
0.300783
0.0998091
4.95151
4.57626
4.03998
3.48801
2.98192
2.53739
2.15065
1.81183
1.51068
1.23837
0.987813
0.753357
0.530447
0.315294
0.104611
6.14199
5.43559
4.57386
3.80717
3.17676
2.6631
2.23761
1.87604
1.56038
1.27772
1.01885
0.777053
0.547225
0.325325
0.107951
8.1553
6.45026
5.01414
3.99018
3.25467
2.70065
2.26073
1.89441
1.57707
1.29324
1.03279
0.788746
0.556055
0.330817
0.109815
12.0782
7.19499
5.0419
3.88458
3.15102
2.62422
2.21036
1.86385
1.56025
1.28536
1.03028
0.789054
0.557409
0.332062
0.1103
-0.0889179
-0.268467
-0.453256
-0.647131
-0.85453
-1.08088
-1.3332
-1.62114
-1.95891
-2.36918
-2.89169
-3.60505
-4.68858
-6.62142
-10.8938
-0.0838086
-0.252858
-0.426264
-0.607146
-0.798961
-1.00569
-1.23207
-1.48384
-1.76804
-2.09283
-2.4655
-2.88194
-3.27846
-3.31129
-1.30735
-0.0777034
-0.234218
-0.394074
-0.559558
-0.73302
-0.91684
-1.11327
-1.32399
-1.54892
-1.78319
-2.00892
-2.17266
-2.12079
-1.41541
1.15242
-0.0708269
-0.213251
-0.357967
-0.506418
-0.659872
-0.819212
-0.984521
-1.15422
-1.32326
-1.47942
-1.59541
-1.61319
-1.41673
-0.812986
0.293627
-0.063413
-0.190688
-0.319256
-0.449792
-0.582621
-0.717419
-0.852695
-0.984846
-1.10648
-1.20346
-1.2501
-1.20259
-0.995273
-0.559811
0.0796056
-0.0556857
-0.167219
-0.279169
-0.391561
-0.503986
-0.615275
-0.723012
-0.822738
-0.90675
-0.962389
-0.970133
-0.903032
-0.732128
-0.448236
-0.111345
-0.0478438
-0.143456
-0.238763
-0.333293
-0.42612
-0.515578
-0.598869
-0.671511
-0.726668
-0.75449
-0.74207
-0.675551
-0.54738
-0.373407
-0.222957
-0.0400521
-0.119896
-0.198884
-0.27619
-0.350571
-0.42014
-0.482094
-0.532398
-0.565529
-0.574469
-0.551503
-0.490829
-0.394382
-0.282166
-0.206444
-0.0324382
-0.0969213
-0.160159
-0.221099
-0.278338
-0.329962
-0.373378
-0.405184
-0.421157
-0.416554
-0.387058
-0.330873
-0.252265
-0.165506
-0.0907635
-0.0250942
-0.0748021
-0.123015
-0.168557
-0.209977
-0.245452
-0.272692
-0.288933
-0.291042
-0.275885
-0.241092
-0.186414
-0.11574
-0.0404146
0.00938293
-0.0180804
-0.0537109
-0.0877098
-0.118853
-0.145718
-0.166625
-0.179608
-0.182461
-0.172886
-0.148813
-0.108878
-0.0529818
0.0176216
0.102494
0.215767
-0.0114312
-0.0337423
-0.0543703
-0.072096
-0.0855658
-0.0932638
-0.0935201
-0.0845807
-0.064765
-0.0327161
0.0123091
0.0703225
0.141133
0.225776
0.323318
-0.00516106
-0.0149318
-0.0230283
-0.0282698
-0.0293908
-0.0250339
-0.0137775
0.00578563
0.0348966
0.0744077
0.124539
0.184834
0.255091
0.340198
0.470487
0.000729955
0.00272733
0.00634976
0.0127209
0.0230131
0.0384431
0.0602388
0.0895625
0.127372
0.174194
0.229773
0.292527
0.358789
0.423337
0.496459
0.00625153
0.0192692
0.0338382
0.0510155
0.0718832
0.0975399
0.129071
0.167489
0.213626
0.267935
0.330084
0.397884
0.463726
0.500617
0.397608
0.0114196
0.0347453
0.0595348
0.0867749
0.117463
0.152599
0.193167
0.240101
0.294244
0.356268
0.426531
0.504699
0.588817
0.675139
0.779501
0.0162535
0.0492168
0.0835495
0.120168
0.159991
0.20393
0.252888
0.307754
0.36943
0.438917
0.517549
0.607487
0.71244
0.837244
0.973597
0.0207748
0.0627491
0.105997
0.151366
0.199697
0.25182
0.308556
0.370728
0.439236
0.515254
0.600778
0.699959
0.822362
0.991431
1.2717
0.0250051
0.0754091
0.126993
0.180536
0.236807
0.296553
0.360499
0.429353
0.503871
0.585033
0.674582
0.776403
0.899964
1.06851
1.33722
0.028966
0.0872624
0.146649
0.207843
0.271543
0.338416
0.409083
0.484099
0.56394
0.649037
0.739933
0.837856
0.946404
1.07616
1.25318
0.0326781
0.0983714
0.165072
0.233441
0.304115
0.377692
0.454701
0.535545
0.620409
0.709063
0.800479
0.892045
0.978185
1.0511
1.13473
0.0361605
0.108794
0.18236
0.25747
0.334712
0.414634
0.497707
0.584254
0.674295
0.767221
0.861
0.950125
1.0192
1.01873
0.752518
0.0394306
0.118581
0.198598
0.28005
0.36349
0.449438
0.538356
0.630587
0.726225
0.824832
0.924833
1.02226
1.10858
1.171
1.23066
0.042504
0.127781
0.213863
0.301284
0.390568
0.48223
0.576761
0.674611
0.77614
0.88152
0.990531
1.10223
1.21461
1.32533
1.43374
0.0453954
0.136435
0.228223
0.321257
0.41604
0.513083
0.612919
0.716135
0.823429
0.93573
1.05444
1.18185
1.32189
1.48138
1.67769
0.0481185
0.144585
0.241741
0.34005
0.439987
0.542049
0.64679
0.754888
0.867293
0.985539
1.11236
1.25283
1.41575
1.61201
1.82939
0.0506869
0.15227
0.254482
0.357748
0.462503
0.569208
0.678388
0.790709
0.907158
1.02944
1.16088
1.30836
1.48656
1.72811
2.11421
0.0531147
0.159533
0.266517
0.374448
0.48371
0.594703
0.707865
0.823723
0.943024
1.06705
1.19836
1.34268
1.51348
1.74397
2.12116
0.0554165
0.166417
0.27792
0.390259
0.503761
0.618747
0.73553
0.854405
0.975666
1.09964
1.22689
1.35875
1.49905
1.65812
1.8537
0.0576068
0.172968
0.288769
0.405298
0.522827
0.6416
0.761801
0.88349
1.00647
1.13003
1.2523
1.3691
1.47164
1.54707
1.62525
0.0596996
0.179227
0.299139
0.41968
0.541078
0.663519
0.7871
0.911735
1.03694
1.16135
1.28162
1.3895
1.46313
1.43424
1.03701
0.061708
0.185236
0.309097
0.433504
0.558653
0.684702
0.811729
0.939645
1.06801
1.1956
1.31961
1.43385
1.52588
1.57732
1.61327
0.0636439
0.191028
0.318702
0.446851
0.575653
0.705264
0.835803
0.967307
1.09965
1.2324
1.36447
1.49375
1.61689
1.73131
1.84298
0.0655177
0.196636
0.328002
0.459781
0.592138
0.725241
0.859271
0.994447
1.13108
1.26971
1.41134
1.55808
1.71405
1.88732
2.09778
0.067339
0.202086
0.337042
0.472348
0.608154
0.744632
0.882008
1.02064
1.16118
1.30497
1.45475
1.61612
1.79931
2.01766
2.25884
0.0691174
0.207408
0.345865
0.484605
0.623753
0.763458
0.903937
1.04557
1.18909
1.33612
1.49019
1.65913
1.86024
2.13229
2.57118
0.0708623
0.212628
0.354519
0.496618
0.639013
0.781804
0.925132
1.06924
1.21463
1.36245
1.51539
1.67996
1.87201
2.13123
2.56325
0.0725834
0.217778
0.363054
0.508463
0.654046
0.799836
0.945848
1.09208
1.23854
1.38527
1.53261
1.68186
1.83722
2.01031
2.21926
0.0742904
0.222886
0.371524
0.520224
0.668984
0.81777
0.966472
1.11484
1.26231
1.40773
1.5486
1.67966
1.79021
1.86465
1.93776
0.075992
0.22798
0.379978
0.53198
0.683955
0.835821
0.987393
1.13827
1.28757
1.4334
1.5715
1.69185
1.76832
1.72005
1.23341
0.0776956
0.233083
0.388456
0.543793
0.699049
0.854134
1.00886
1.16285
1.31529
1.46449
1.60681
1.73468
1.8331
1.88
1.90426
0.079407
0.238211
0.396985
0.555699
0.714311
0.872753
1.03091
1.18856
1.34532
1.50039
1.65224
1.79811
1.93373
2.05582
2.17138
0.0811301
0.243377
0.405581
0.567713
0.729739
0.89163
1.05337
1.21497
1.37657
1.53857
1.70191
1.8688
2.04386
2.2363
2.4692
0.0828678
0.248586
0.414253
0.579836
0.74531
0.910671
1.07598
1.24144
1.40761
1.57585
1.74917
1.93395
2.14201
2.38883
2.6593
0.0846223
0.253847
0.42301
0.592073
0.761007
0.929808
1.09855
1.26747
1.43728
1.60966
1.78857
1.98306
2.21333
2.52508
3.03178
0.086396
0.259164
0.431861
0.604436
0.776843
0.949044
1.12104
1.29296
1.46522
1.63898
1.81724
2.00746
2.22817
2.52611
3.02558
0.0881911
0.264547
0.440821
0.616953
0.792869
0.968476
1.14366
1.31828
1.49217
1.66524
1.83768
2.01082
2.18945
2.38735
2.62705
0.0900092
0.270001
0.449906
0.629656
0.809155
0.988257
1.16673
1.34415
1.51975
1.69198
1.85773
2.01053
2.13743
2.21969
2.29818
0.0918511
0.275528
0.459124
0.64257
0.825762
1.00853
1.19058
1.37135
1.54971
1.72327
1.88686
2.02836
2.11645
2.05479
1.47024
0.0937152
0.281126
0.468472
0.655696
0.842708
1.02936
1.21539
1.40029
1.58304
1.76155
1.93141
2.08343
2.19953
2.25313
2.27839
0.0955978
0.286782
0.477929
0.669003
0.859949
1.05068
1.24104
1.43077
1.61936
1.80587
1.98841
2.16359
2.32607
2.47128
2.605
0.097493
0.292478
0.48746
0.682433
0.877385
1.0723
1.26719
1.4621
1.6572
1.85297
2.0506
2.2527
2.4647
2.6975
2.97901
0.0993932
0.298191
0.497023
0.695911
0.894887
1.094
1.29339
1.49335
1.69461
1.89884
2.10975
2.33504
2.58898
2.89004
3.21815
0.10129
0.303894
0.506569
0.709363
0.912335
1.11557
1.31925
1.52375
1.73
1.94012
2.15898
2.39761
2.68063
3.06391
3.68693
0.103175
0.309561
0.516055
0.722724
0.929641
1.13688
1.34458
1.553
1.76276
1.97538
2.19457
2.42948
2.70274
3.07144
3.68671
0.105039
0.315167
0.525441
0.735947
0.946761
1.15793
1.36948
1.58138
1.79359
2.00612
2.21931
2.43485
2.65864
2.90789
3.21181
0.106874
0.320685
0.534687
0.74899
0.963675
1.17877
1.39417
1.60959
1.82424
2.03645
2.24251
2.43462
2.59692
2.70649
2.81344
0.108667
0.326084
0.543746
0.761798
0.980347
1.19943
1.41892
1.63837
1.85665
2.07107
2.27549
2.45521
2.57185
2.50704
1.8015
0.110407
0.331326
0.552556
0.774291
0.996691
1.21985
1.44374
1.66803
1.89177
2.11269
2.32569
2.51974
2.67284
2.75266
2.80171
0.112078
0.336364
0.561038
0.786352
1.01254
1.23982
1.46834
1.69811
1.92888
2.15985
2.3891
2.61282
2.82479
3.01976
3.20484
0.113663
0.341144
0.569095
0.797832
1.02768
1.25898
1.49212
1.72754
1.9659
2.20823
2.45643
2.71417
2.98861
3.29382
3.66522
0.115143
0.34561
0.576625
0.808569
1.04185
1.27692
1.51435
1.75499
2.00021
2.25258
2.51719
2.80402
3.13114
3.52202
3.95385
0.1165
0.349706
0.583531
0.818409
1.0548
1.29325
1.53442
1.7793
2.02958
2.28847
2.56256
2.86599
3.22948
3.72189
4.51358
0.117719
0.353382
0.589726
0.827222
1.06637
1.30772
1.55194
1.79991
2.05303
2.31384
2.58764
2.88637
3.23836
3.71405
4.4999
0.118784
0.356596
0.595139
0.834915
1.07644
1.32025
1.56691
1.817
2.07117
2.33023
2.59547
2.86986
3.16139
3.49095
3.88976
0.119685
0.359312
0.599715
0.841419
1.08496
1.33084
1.57953
1.83129
2.08596
2.34235
2.59701
2.84157
3.05805
3.21985
3.38799
0.120409
0.361499
0.603403
0.846676
1.09187
1.33952
1.59006
1.84361
2.09959
2.35571
2.60562
2.83288
2.99273
2.94445
2.13749
0.120949
0.363129
0.606158
0.85062
1.09711
1.34624
1.59853
1.85427
2.11315
2.3734
2.63001
2.8711
3.07197
3.196
3.29537
0.121297
0.36418
0.607934
0.853174
1.10056
1.3508
1.60464
1.86279
2.12579
2.39365
2.66523
2.93735
3.20462
3.46477
3.73745
0.121449
0.364633
0.608692
0.85426
1.10205
1.35289
1.60779
1.86799
2.13509
2.41134
2.70012
3.00705
3.34228
3.72491
4.19808
0.121404
0.364488
0.608417
0.853823
1.10145
1.3522
1.6073
1.86842
2.13807
2.42036
2.72243
3.05718
3.44706
3.92226
4.46976
0.12117
0.363762
0.60713
0.851866
1.09869
1.34853
1.60266
1.86295
2.1323
2.41567
2.72208
3.06912
3.49263
4.06949
4.98145
0.120765
0.362506
0.604905
0.848476
1.09386
1.34191
1.59379
1.85121
2.11683
2.39499
2.69356
3.02801
3.43177
3.98409
4.89632
0.120214
0.3608
0.601878
0.843845
1.08721
1.33264
1.58109
1.83382
2.09266
2.36017
2.64016
2.93886
3.26776
3.64882
4.09632
0.119556
0.358759
0.598246
0.83826
1.07913
1.32132
1.56543
1.81222
2.0625
2.3167
2.57382
2.8288
3.06758
3.26747
3.49471
0.118838
0.356526
0.594256
0.832095
1.07017
1.30868
1.54793
1.78822
2.02963
2.27123
2.509
2.73004
2.89442
2.86718
2.10296
0.118115
0.354269
0.5902
0.82578
1.06091
1.29555
1.52973
1.76346
1.99665
2.22843
2.45584
2.6707
2.85435
2.97873
3.10131
0.117446
0.352171
0.586397
0.819787
1.05201
1.28278
1.51184
1.73911
1.96465
2.18866
2.41141
2.6331
2.85545
3.09157
3.40303
0.116893
0.350424
0.583181
0.814614
1.04415
1.27119
1.49523
1.71599
1.93372
2.1498
2.36773
2.59508
2.847
3.15214
3.55833
0.116518
0.349219
0.58089
0.810771
1.03802
1.2617
1.48092
1.69498
1.90395
2.10964
2.31752
2.54003
2.80162
3.14255
3.60186
0.116378
0.348734
0.579847
0.808766
1.03437
1.25534
1.47019
1.67751
1.87647
2.06799
2.25717
2.45788
2.70117
3.0508
3.63095
0.116518
0.349113
0.580331
0.809069
1.03395
1.25322
1.46471
1.66587
1.85415
2.02796
2.18884
2.34618
2.52688
2.79899
3.35421
0.116964
0.350451
0.58254
0.812055
1.03743
1.25652
1.46641
1.66318
1.8419
1.9969
2.12299
2.21829
2.28913
2.3506
2.36997
0.117717
0.352759
0.586538
0.817916
1.04527
1.26622
1.47721
1.67302
1.84611
1.98593
2.07852
2.10742
2.05789
1.93148
1.8132
0.118744
0.355945
0.592201
0.826566
1.05756
1.28282
1.49854
1.69863
1.87342
2.00774
2.0783
2.05104
1.88005
1.50674
0.815028
0.119967
0.359785
0.599172
0.83755
1.07383
1.30605
1.53071
1.74179
1.92884
2.07384
2.14602
2.09451
1.84271
1.30311
0.468481
0.121271
0.363922
0.606839
0.849981
1.09291
1.33449
1.57231
1.80163
2.01345
2.19052
2.29966
2.2771
2.00525
1.30438
0.123978
0.122499
0.367871
0.614343
0.862545
1.11292
1.36554
1.61979
1.87363
2.12219
2.35438
2.54479
2.63283
2.46571
1.63863
-0.937082
0.123464
0.371052
0.620636
0.873588
1.13135
1.39545
1.66752
1.94928
2.24232
2.54729
2.86107
3.16577
3.38444
3.18714
1.08802
0.123968
0.372841
0.624579
0.881275
1.14535
1.41978
1.7085
2.0171
2.35417
2.73414
3.18374
3.75853
4.59188
6.05596
9.34328
9.17051
5.74203
4.25722
3.4347
2.88176
2.45862
2.10711
1.79939
1.5204
1.26124
1.01615
0.781153
0.553276
0.330149
0.109753
0.476336
2.73861
2.99025
2.80589
2.53299
2.25135
1.97886
1.71827
1.46866
1.2283
0.995418
0.768409
0.545811
0.326282
0.108561
-1.60602
1.13152
2.02598
2.23851
2.19027
2.03776
1.84234
1.62954
1.4105
1.19015
0.970593
0.752591
0.536207
0.321152
0.106953
-0.298569
0.804309
1.53521
1.85219
1.91997
1.85397
1.7179
1.54516
1.35324
1.15142
0.944677
0.735638
0.525672
0.315424
0.105139
-0.171684
0.735361
1.33185
1.63892
1.74259
1.71888
1.61894
1.47408
1.30284
1.11612
0.920339
0.719318
0.515326
0.309716
0.103317
0.108695
0.882046
1.32947
1.56691
1.65369
1.63673
1.55118
1.42133
1.26319
1.08709
0.89963
0.705055
0.506098
0.304554
0.101658
1.02483
1.25506
1.47293
1.59955
1.63685
1.60222
1.51419
1.38823
1.23602
1.06594
0.883858
0.693831
0.498662
0.30033
0.10029
1.53496
1.63668
1.67976
1.69425
1.66997
1.60481
1.50355
1.37335
1.22124
1.05312
0.873604
0.686175
0.493422
0.297291
0.0992955
2.43684
2.05903
1.90646
1.81592
1.73149
1.63247
1.513
1.3737
1.21759
1.04822
0.868847
0.682217
0.490531
0.295549
0.098715
2.73003
2.325
2.09011
1.93336
1.80318
1.67434
1.53624
1.38573
1.22316
1.05026
0.869138
0.681776
0.489931
0.295094
0.0985494
2.84066
2.47286
2.21952
2.03239
1.87395
1.72266
1.5681
1.40614
1.2359
1.05804
0.873766
0.684454
0.491412
0.295827
0.0987695
2.86847
2.54124
2.30296
2.11154
1.93977
1.77327
1.60511
1.43231
1.25397
1.07027
0.881904
0.689731
0.494665
0.297586
0.0993252
2.82387
2.5479
2.35388
2.17708
2.00193
1.82505
1.64536
1.46233
1.27576
1.08577
0.892695
0.697026
0.499323
0.300171
0.100153
2.60639
2.49768
2.39288
2.2415
2.06533