/*--------------------------------*- C++ -*----------------------------------*\
| =========                 |                                                 |
| \\      /  F ield         | OpenFOAM: The Open Source CFD Toolbox           |
|  \\    /   O peration     | Version:  5.x                                   |
|   \\  /    A nd           | Web:      www.OpenFOAM.org                      |
|    \\/     M anipulation  |                                                 |
\*---------------------------------------------------------------------------*/
FoamFile
{
    version     2.0;
    format      ascii;
    class       volScalarField;
    location    "3.7";
    object      gradTx;
}
// * * * * * * * * * * * * * * * * * * * * * * * * * * * * * * * * * * * * * //

dimensions      [0 -1 0 1 0 0 0];

internalField   nonuniform List<scalar> 
6300
(
-48.5927
-48.5721
-48.531
-48.4691
-48.3863
-48.2825
-48.1575
-48.0116
-47.8451
-47.6587
-47.4534
-47.2307
-46.9921
-46.7394
-46.4741
-48.6133
-48.5929
-48.5519
-48.4902
-48.4075
-48.3037
-48.1787
-48.0324
-47.8652
-47.6777
-47.4711
-47.2467
-47.0064
-46.7522
-46.4858
-48.6547
-48.6344
-48.5937
-48.5324
-48.4501
-48.3465
-48.2212
-48.0743
-47.9057
-47.7162
-47.5067
-47.2789
-47.0349
-46.7773
-46.5087
-48.7164
-48.6965
-48.6563
-48.5957
-48.5141
-48.411
-48.2857
-48.1379
-47.9675
-47.7748
-47.5608
-47.3274
-47.0772
-46.8138
-46.5408
-48.7983
-48.7788
-48.7396
-48.6802
-48.5999
-48.4977
-48.3729
-48.2244
-48.0517
-47.8549
-47.6345
-47.3928
-47.1331
-46.8601
-46.5795
-48.8998
-48.8811
-48.8433
-48.7858
-48.7076
-48.6074
-48.4838
-48.3352
-48.1604
-47.9586
-47.7299
-47.4765
-47.2023
-46.9142
-46.6206
-49.0202
-49.0026
-48.9669
-48.9123
-48.8375
-48.7407
-48.6198
-48.4725
-48.2963
-48.0892
-47.8503
-47.581
-47.2859
-46.9739
-46.6583
-49.1585
-49.1423
-49.1096
-49.0591
-48.9894
-48.8982
-48.7825
-48.6389
-48.4633
-48.2518
-48.0014
-47.7115
-47.3864
-47.0376
-46.6846
-49.313
-49.2988
-49.2701
-49.2254
-49.1631
-49.0803
-48.9733
-48.8374
-48.6664
-48.4536
-48.1921
-47.8774
-47.511
-47.1056
-46.6898
-49.4817
-49.4702
-49.4466
-49.4096
-49.3573
-49.2867
-49.1933
-49.071
-48.9116
-48.7042
-48.4362
-48.0952
-47.6747
-47.1842
-46.6627
-49.6622
-49.6538
-49.6366
-49.6093
-49.5701
-49.516
-49.4423
-49.342
-49.2048
-49.0156
-48.7535
-48.3928
-47.9084
-47.2939
-46.5943
-49.8511
-49.8464
-49.8367
-49.8211
-49.798
-49.765
-49.718
-49.6501
-49.5501
-49.3999
-49.1697
-48.8141
-48.2724
-47.4887
-46.4854
-50.0449
-50.0443
-50.0429
-50.0404
-50.036
-50.0283
-50.0147
-49.9903
-49.946
-49.8643
-49.7112
-49.4218
-48.8785
-47.9033
-46.368
-50.2394
-50.243
-50.2505
-50.2619
-50.2775
-50.2977
-50.3223
-50.3505
-50.3793
-50.4001
-50.3893
-50.2836
-49.9165
-48.8783
-46.3958
-50.4303
-50.4381
-50.4541
-50.4792
-50.5147
-50.5627
-50.6263
-50.7102
-50.8208
-50.9678
-51.1624
-51.4068
-51.626
-51.2979
-47.4654
-46.2211
-45.9826
-45.7359
-45.4801
-45.214
-44.9359
-44.644
-44.3366
-44.0124
-43.6705
-43.3106
-42.9333
-42.5397
-42.1315
-41.7108
-41.2802
-40.8422
-40.3997
-39.9555
-39.5125
-39.0736
-38.6416
-38.2192
-37.8088
-37.4127
-37.0326
-36.6699
-36.3257
-36.0006
-35.6948
-35.4082
-35.1402
-34.8899
-34.6565
-34.4385
-34.2347
-34.0439
-33.8645
-33.6954
-33.5353
-33.383
-33.2374
-33.0978
-32.9633
-32.8336
-32.7086
-32.5886
-32.4744
-32.3668
-32.2672
-32.1767
-32.0966
-32.0281
-31.9721
-31.9293
-31.9002
-31.885
-31.8836
-31.8959
-31.9211
-31.9589
-32.0084
-32.0691
-32.1402
-32.2212
-32.3116
-32.4111
-32.5193
-32.6358
-32.7605
-32.8931
-33.0334
-33.1813
-33.3369
-33.5002
-33.6712
-33.8501
-34.0367
-34.2311
-34.4331
-34.6426
-34.8594
-35.0832
-35.3137
-35.5502
-35.792
-36.0381
-36.287
-36.5371
-36.7864
-46.2326
-45.9946
-45.7491
-45.4952
-45.2315
-44.9559
-44.6665
-44.3612
-44.0382
-43.6966
-43.336
-42.9571
-42.561
-42.1497
-41.7255
-41.291
-40.849
-40.4024
-39.9541
-39.5069
-39.064
-38.6281
-38.2022
-37.7887
-37.3899
-37.0078
-36.6436
-36.2986
-35.9731
-35.6676
-35.3817
-35.1148
-34.8661
-34.6344
-34.4183
-34.2165
-34.0275
-33.85
-33.6827
-33.5242
-33.3735
-33.2292
-33.0906
-32.9567
-32.827
-32.7015
-32.5805
-32.4649
-32.3556
-32.2541
-32.1618
-32.08
-32.0101
-31.9531
-31.9096
-31.8802
-31.8651
-31.8641
-31.877
-31.9032
-31.9419
-31.9924
-32.0539
-32.1258
-32.2075
-32.2985
-32.3984
-32.507
-32.624
-32.7489
-32.8817
-33.0221
-33.17
-33.3255
-33.4887
-33.6597
-33.8385
-34.0253
-34.2198
-34.422
-34.6318
-34.8489
-35.0733
-35.3045
-35.5421
-35.7855
-36.0335
-36.2848
-36.5377
-36.79
-46.2547
-46.0176
-45.7747
-45.5248
-45.2662
-44.9963
-44.7123
-44.4114
-44.0912
-43.7503
-43.3883
-43.0058
-42.6046
-42.1868
-41.7553
-41.313
-40.8629
-40.408
-39.9512
-39.4957
-39.0445
-38.6007
-38.1676
-37.7477
-37.3436
-36.9573
-36.5902
-36.2434
-35.9174
-35.6124
-35.3281
-35.0637
-34.8182
-34.5901
-34.378
-34.1801
-33.995
-33.8212
-33.6575
-33.5024
-33.3548
-33.2133
-33.0768
-32.9441
-32.8146
-32.6881
-32.565
-32.4463
-32.3334
-32.2279
-32.1318
-32.0466
-31.9738
-31.9146
-31.8697
-31.8397
-31.8247
-31.8247
-31.839
-31.867
-31.9078
-31.9604
-32.0238
-32.0972
-32.1802
-32.2722
-32.3731
-32.4826
-32.6003
-32.7259
-32.8591
-32.9997
-33.1475
-33.3028
-33.4657
-33.6365
-33.8153
-34.0022
-34.197
-34.3996
-34.6099
-34.8277
-35.053
-35.2856
-35.5254
-35.7717
-36.0237
-36.2799
-36.5383
-36.7969
-46.2851
-46.0493
-45.8105
-45.5674
-45.3175
-45.0574
-44.7828
-44.4895
-44.1742
-43.8346
-43.4702
-43.082
-42.6722
-42.244
-41.8009
-41.3465
-40.884
-40.4165
-39.947
-39.4785
-39.0145
-38.5585
-38.114
-37.6843
-37.2721
-36.8795
-36.508
-36.1586
-35.8318
-35.5278
-35.246
-34.9857
-34.7454
-34.5232
-34.3173
-34.1256
-33.9464
-33.7783
-33.6199
-33.4701
-33.3275
-33.1906
-33.0576
-32.9272
-32.7981
-32.6701
-32.5435
-32.4196
-32.3005
-32.1886
-32.0861
-31.9954
-31.9181
-31.8555
-31.8085
-31.7776
-31.763
-31.7644
-31.7813
-31.8125
-31.8568
-31.9127
-31.979
-32.0548
-32.1396
-32.2332
-32.3354
-32.4461
-32.565
-32.6917
-32.8256
-32.9665
-33.1141
-33.2688
-33.4311
-33.6014
-33.7801
-33.9672
-34.1626
-34.3658
-34.5768
-34.7953
-35.0216
-35.256
-35.4987
-35.7494
-36.0074
-36.2712
-36.5385
-36.8068
-46.3203
-46.0856
-45.8526
-45.6198
-45.3839
-45.1395
-44.8803
-44.5997
-44.2924
-43.9551
-43.5869
-43.1895
-42.7666
-42.3228
-41.8632
-41.392
-40.9128
-40.4283
-39.9414
-39.4552
-38.9734
-38.5001
-38.0396
-37.5961
-37.1726
-36.7715
-36.3942
-36.0415
-35.7139
-35.4113
-35.1335
-34.8792
-34.6467
-34.4334
-34.2365
-34.0535
-33.8823
-33.7216
-33.5704
-33.4278
-33.2923
-33.1623
-33.0351
-32.9085
-32.7804
-32.6501
-32.5181
-32.3862
-32.2576
-32.1356
-32.0238
-31.9249
-31.8412
-31.774
-31.7241
-31.6921
-31.6781
-31.682
-31.7029
-31.7392
-31.7889
-31.8499
-31.9204
-31.9994
-32.0863
-32.1814
-32.2851
-32.3976
-32.5184
-32.6468
-32.782
-32.9231
-33.0702
-33.2237
-33.3846
-33.554
-33.7324
-33.9201
-34.1164
-34.3207
-34.5323
-34.7513
-34.9782
-35.2141
-35.4599
-35.7162
-35.9823
-36.2568
-36.5369
-36.8192
-46.3542
-46.1199
-45.8946
-45.6772
-45.4628
-45.2434
-45.0088
-44.7487
-44.4543
-44.1203
-43.7458
-43.334
-42.8912
-42.4249
-41.9425
-41.4495
-40.9493
-40.444
-39.9353
-39.4261
-38.9203
-38.4234
-37.9413
-37.4793
-37.0413
-36.6297
-36.2454
-35.8888
-35.5601
-35.2597
-34.9873
-34.7419
-34.5207
-34.3201
-34.1359
-33.9645
-33.8034
-33.6516
-33.5089
-33.3753
-33.2498
-33.13
-33.0121
-32.8921
-32.7662
-32.6329
-32.4926
-32.3484
-32.2051
-32.0682
-31.9429
-31.8329
-31.7407
-31.6675
-31.614
-31.5806
-31.5677
-31.5752
-31.6022
-31.6464
-31.7046
-31.7733
-31.8497
-31.9323
-32.021
-32.1172
-32.2222
-32.3368
-32.4606
-32.5921
-32.7294
-32.871
-33.0167
-33.1676
-33.3256
-33.493
-33.6712
-33.8601
-34.0584
-34.2645
-34.4768
-34.6954
-34.9214
-35.1573
-35.4057
-35.6682
-35.9448
-36.2337
-36.5315
-36.8335
-46.378
-46.1412
-45.9256
-45.7304
-45.5492
-45.3694
-45.1745
-44.9473
-44.6733
-44.3442
-43.9589
-43.5236
-43.0499
-42.5507
-42.0375
-41.5175
-40.9935
-40.4647
-39.9305
-39.3922
-38.8547
-38.3258
-37.8143
-37.3282
-36.8725
-36.4489
-36.0571
-35.6961
-35.366
-35.0679
-34.8028
-34.5699
-34.3654
-34.1835
-34.0173
-33.861
-33.7115
-33.5687
-33.4346
-33.3114
-33.1993
-33.0952
-32.9926
-32.8842
-32.7631
-32.6258
-32.473
-32.3096
-32.1437
-31.9844
-31.8399
-31.7153
-31.6129
-31.533
-31.4751
-31.4396
-31.4277
-31.4404
-31.4768
-31.5336
-31.6052
-31.6856
-31.77
-31.8561
-31.945
-32.0401
-32.1452
-32.2625
-32.3914
-32.5287
-32.6703
-32.8128
-32.9556
-33.1007
-33.2527
-33.4163
-33.5941
-33.7861
-33.989
-34.1988
-34.4121
-34.6282
-34.8499
-35.0821
-35.3306
-35.5993
-35.8891
-36.1975
-36.5195
-36.8486
-46.3781
-46.1325
-45.9272
-45.7638
-45.6338
-45.5174
-45.387
-45.2135
-44.9722
-44.6492
-44.244
-43.7691
-43.2455
-42.6969
-42.1424
-41.5919
-41.0447
-40.4938
-39.9319
-39.3576
-38.7771
-38.2033
-37.6512
-37.1337
-36.6577
-36.2228
-35.8247
-35.4592
-35.1261
-34.829
-34.5724
-34.3571
-34.1781
-34.0247
-33.8848
-33.7481
-33.6103
-33.4735
-33.3448
-33.2319
-33.1378
-33.0582
-32.982
-32.8947
-32.7836
-32.6414
-32.4688
-32.2745
-32.0728
-31.8797
-31.7083
-31.5658
-31.453
-31.3667
-31.3038
-31.2646
-31.2525
-31.2714
-31.322
-31.3992
-31.4931
-31.5922
-31.6876
-31.7758
-31.8599
-31.9484
-32.0504
-32.1713
-32.3099
-32.459
-32.6096
-32.7541
-32.8906
-33.0237
-33.163
-33.3185
-33.4965
-33.6958
-33.9094
-34.1276
-34.3428
-34.5528
-34.7627
-34.9831
-35.2258
-35.4995
-35.8061
-36.1411
-36.4968
-36.8634
-46.3341
-46.066
-45.8686
-45.7495
-45.6991
-45.6857
-45.6621
-45.5774
-45.389
-45.0729
-44.6298
-44.0847
-43.4776
-42.8519
-42.2419
-41.6617
-41.1017
-40.5389
-39.9516
-39.3321
-38.6904
-38.0498
-37.4385
-36.8799
-36.3839
-35.9442
-35.5455
-35.1759
-34.8346
-34.5322
-34.2827
-34.0926
-33.954
-33.8469
-33.7477
-33.6373
-33.508
-33.3669
-33.2326
-33.1254
-33.0557
-33.0168
-32.9873
-32.9398
-32.8492
-32.701
-32.4959
-32.2501
-31.9899
-31.7438
-31.535
-31.3737
-31.2551
-31.1668
-31.0987
-31.0507
-31.0325
-31.0568
-31.1289
-31.2407
-31.3733
-31.5042
-31.6156
-31.7011
-31.7685
-31.8371
-31.9283
-32.0546
-32.2128
-32.3872
-32.5572
-32.7066
-32.8303
-32.9376
-33.0494
-33.1883
-33.3678
-33.5847
-33.8227
-34.0604
-34.2805
-34.4772
-34.6601
-34.8513
-35.0762
-35.3521
-35.6814
-36.0547
-36.4578
-36.8767
-46.2162
-45.898
-45.6972
-45.6365
-45.7114
-45.8688
-46.0253
-46.0909
-45.9901
-45.6795
-45.1629
-44.49
-43.7367
-42.9847
-42.2988
-41.7025
-41.1631
-40.6195
-40.0179
-39.3388
-38.6024
-37.8544
-37.1502
-36.5361
-36.0296
-35.6066
-35.2248
-34.8523
-34.4875
-34.1595
-33.9076
-33.7543
-33.6847
-33.6581
-33.6271
-33.5539
-33.4228
-33.2507
-33.0815
-32.965
-32.9296
-32.9618
-33.0189
-33.0471
-32.9981
-32.8426
-32.5817
-32.2467
-31.8865
-31.5545
-31.2936
-31.1201
-31.0137
-30.9378
-30.8647
-30.7937
-30.7515
-30.7732
-30.8786
-31.0524
-31.2559
-31.444
-31.5809
-31.6523
-31.6752
-31.6932
-31.7555
-31.8918
-32.0924
-32.3213
-32.5342
-32.696
-32.7934
-32.8449
-32.8964
-32.9994
-33.1848
-33.4429
-33.7361
-34.0183
-34.2517
-34.4212
-34.545
-34.6705
-34.8527
-35.1276
-35.4931
-35.9248
-36.3957
-36.8871
-45.9807
-45.5611
-45.3244
-45.3285
-45.605
-46.0535
-46.5195
-46.8441
-46.8937
-46.583
-45.9212
-45.0112
-43.994
-43.0225
-42.2267
-41.6618
-41.2309
-40.7838
-40.1959
-39.4285
-38.5313
-37.596
-36.7323
-36.0378
-35.5552
-35.2098
-34.8912
-34.5177
-34.0876
-33.6775
-33.3908
-33.2959
-33.3535
-33.4757
-33.5677
-33.5539
-33.3971
-33.1304
-32.8549
-32.6882
-32.7062
-32.8713
-33.0923
-33.2656
-33.3004
-33.136
-32.7744
-32.2798
-31.7427
-31.2628
-30.9262
-30.7699
-30.7285
-30.7049
-30.6275
-30.4955
-30.3783
-30.3693
-30.5297
-30.8213
-31.1606
-31.4576
-31.6403
-31.6733
-31.589
-31.4851
-31.4759
-31.6361
-31.9313
-32.2781
-32.5847
-32.778
-32.8223
-32.7521
-32.669
-32.6914
-32.8969
-33.2503
-33.6653
-34.046
-34.3144
-34.4306
-34.4273
-34.4079
-34.4952
-34.7721
-35.2092
-35.7382
-36.3039
-36.8905
-45.5591
-44.961
-44.6051
-44.6285
-45.2511
-46.2131
-47.2176
-47.9933
-48.3167
-47.992
-47.0374
-45.6872
-44.1857
-42.8077
-41.8223
-41.4285
-41.3221
-41.1514
-40.6324
-39.7056
-38.5155
-37.2349
-36.0712
-35.2347
-34.8833
-34.7749
-34.6367
-34.2652
-33.6589
-33.0184
-32.5979
-32.6183
-32.9297
-33.3369
-33.6608
-33.7604
-33.5298
-33.0232
-32.4719
-32.1455
-32.2713
-32.7005
-33.2345
-33.6839
-33.89
-33.7136
-33.1589
-32.3743
-31.5168
-30.7649
-30.2994
-30.2545
-30.4176
-30.5494
-30.4691
-30.176
-29.8495
-29.7212
-29.9921
-30.5213
-31.126
-31.6356
-31.9153
-31.8631
-31.5309
-31.1406
-30.9523
-31.1857
-31.6959
-32.2924
-32.7981
-33.0741
-33.0158
-32.6775
-32.2892
-32.1196
-32.3956
-32.9689
-33.6434
-34.235
-34.5961
-34.6118
-34.3324
-33.9911
-33.8645
-34.1854
-34.7929
-35.4983
-36.1818
-36.8674
-44.8053
-44.0125
-43.34
-43.0659
-44.409
-46.3118
-48.2453
-49.7945
-50.6731
-50.3087
-48.7237
-46.5816
-44.2002
-42.0278
-40.5666
-40.7815
-41.5066
-42.0208
-41.6567
-40.3621
-38.6305
-36.7059
-34.9396
-33.7333
-33.8619
-34.3835
-34.7187
-34.351
-33.28
-32.0429
-31.1708
-31.522
-32.3683
-33.3187
-34.0773
-34.4427
-34.0606
-32.9807
-31.7656
-30.9522
-31.4
-32.3791
-33.4989
-34.4529
-35.0307
-34.8361
-33.8749
-32.5743
-31.1389
-29.8549
-29.0671
-29.4398
-30.1518
-30.6997
-30.6171
-29.9046
-29.0354
-28.4984
-29.0827
-30.1125
-31.2286
-32.1444
-32.6682
-32.4561
-31.5562
-30.505
-29.8211
-30.3364
-31.3361
-32.4371
-33.3419
-33.8512
-33.6122
-32.6747
-31.5941
-30.9055
-31.4656
-32.5414
-33.7405
-34.7552
-35.3748
-35.2172
-34.3259
-33.2648
-32.5885
-33.1857
-34.2348
-35.2894
-36.0561
-36.7157
-43.1773
-42.8911
-41.5012
-39.1745
-42.7611
-46.3666
-49.8266
-52.5616
-54.8198
-54.3831
-51.2124
-47.8207
-43.9137
-40.2242
-36.8975
-39.4001
-41.9952
-44.1552
-44.0214
-41.6482
-39.0238
-35.9493
-33.0017
-30.3097
-32.2749
-34.2608
-35.8131
-35.45
-33.1407
-30.5418
-27.9822
-29.7131
-31.6572
-33.5772
-35.0603
-36.2018
-35.5964
-33.1331
-30.4812
-27.9427
-29.7639
-31.8553
-34.0022
-35.764
-37.2837
-37.0627
-35.08
-32.9684
-30.5432
-28.2302
-26.164
-28.1366
-30.1223
-31.7579
-31.6721
-29.859
-27.7431
-25.6607
-27.5316
-29.5795
-31.6196
-33.2174
-34.4807
-34.0394
-31.7994
-29.3401
-26.9632
-28.7894
-30.8303
-32.8639
-34.4552
-35.7055
-35.2141
-32.8774
-30.3346
-27.893
-29.7926
-31.9361
-34.1029
-35.8437
-37.2725
-36.8788
-34.5634
-31.9841
-29.4784
-31.5351
-33.6683
-35.4945
-36.0843
-35.916
-37.7324
-43.3588
-41.012
-26.768
-41.0863
-46.6314
-52.452
-56.0157
-62.8475
-62.3951
-54.0194
-49.8025
-43.3144
-37.8986
-24.8345
-37.8858
-43.1108
-49.593
-49.6112
-43.2964
-40.0656
-35.0105
-30.6959
-20.1803
-30.6585
-34.7631
-39.6659
-39.3519
-33.4188
-28.9846
-18.6157
-27.5977
-30.9812
-34.465
-36.5356
-40.4768
-39.8082
-33.5573
-29.0339
-18.6557
-27.7391
-31.252
-35.0604
-37.4241
-42.044
-41.8263
-36.4711
-33.8142
-29.7864
-26.2503
-17.4451
-26.8146
-30.5973
-35.2949
-35.2148
-30.2494
-26.4027
-17.1302
-25.7256
-29.0579
-32.6474
-34.7719
-38.7479
-38.2128
-32.3583
-28.0563
-18.0524
-26.9331
-30.3348
-33.9272
-36.0592
-40.0675
-39.4727
-33.3768
-28.9289
-18.6287
-27.7679
-31.2967
-35.0783
-37.3811
-41.7938
-41.3072
-35.1806
-30.5969
-19.798
-29.7738
-33.5435
-37.4793
-37.2031
-31.7303
-37.0573
-37.3458
-37.6234
-37.8867
-38.1328
-38.3595
-38.5651
-38.7485
-38.909
-39.0463
-39.1603
-39.2512
-39.3191
-39.3642
-39.3867
-37.0642
-37.3564
-37.6372
-37.9033
-38.1517
-38.3801
-38.5869
-38.7709
-38.9317
-39.0691
-39.183
-39.2736
-39.3413
-39.3863
-39.4087
-37.0781
-37.3777
-37.6653
-37.9371
-38.1901
-38.4218
-38.6308
-38.8161
-38.9774
-39.1148
-39.2284
-39.3186
-39.3858
-39.4305
-39.4527
-37.0991
-37.4104
-37.7086
-37.9894
-38.2492
-38.4859
-38.6979
-38.8848
-39.0467
-39.1837
-39.2967
-39.386
-39.4525
-39.4965
-39.5184
-37.1276
-37.4557
-37.7689
-38.0619
-38.331
-38.5739
-38.7896
-38.9782
-39.1401
-39.2764
-39.388
-39.4759
-39.5411
-39.5842
-39.6056
-37.1641
-37.5155
-37.8489
-38.1579
-38.4385
-38.6886
-38.908
-39.0976
-39.2587
-39.3931
-39.5025
-39.5881
-39.6513
-39.693
-39.7136
-37.2099
-37.5928
-37.9528
-38.2819
-38.5759
-38.8334
-39.0557
-39.2448
-39.4035
-39.5345
-39.6401
-39.7223
-39.7826
-39.8222
-39.8418
-37.267
-37.6925
-38.087
-38.4406
-38.7491
-39.0131
-39.236
-39.422
-39.5756
-39.7007
-39.8005
-39.8777
-39.9341
-39.971
-39.9892
-37.339
-37.8226
-38.2619
-38.644
-38.9665
-39.2336
-39.4526
-39.631
-39.7756
-39.8916
-39.9832
-40.0535
-40.1045
-40.1378
-40.1543
-37.4322
-37.9966
-38.4934
-38.9068
-39.2391
-39.502
-39.7094
-39.8735
-40.0035
-40.1063
-40.1866
-40.2479
-40.2922
-40.3211
-40.3353
-37.5562
-38.2379
-38.808
-39.2502
-39.5808
-39.8258
-40.0095
-40.1496
-40.2582
-40.3428
-40.4086
-40.4586
-40.4948
-40.5184
-40.5301
-37.7236
-38.5905
-39.2499
-39.7042
-40.0073
-40.211
-40.3532
-40.4572
-40.5363
-40.5978
-40.6458
-40.6826
-40.7095
-40.7272
-40.7359
-37.9521
-39.1495
-39.8963
-40.3083
-40.5314
-40.6571
-40.7351
-40.7896
-40.8316
-40.8657
-40.8936
-40.916
-40.9329
-40.9443
-40.95
-38.3144
-40.1586
-40.8783
-41.1014
-41.1514
-41.1502
-41.1403
-41.1345
-41.1346
-41.1393
-41.1465
-41.1543
-41.1612
-41.1664
-41.1692
-39.4517
-42.2906
-42.3563
-42.0677
-41.8209
-41.651
-41.5413
-41.4733
-41.4328
-41.41
-41.3981
-41.3927
-41.3908
-41.3905
-41.3906
-50.5984
-50.6096
-50.6327
-50.6689
-50.7207
-50.7914
-50.8867
-51.0154
-51.1924
-51.4445
-51.8255
-52.4598
-53.6951
-56.7282
-66.5323
-50.7434
-50.7573
-50.7859
-50.8308
-50.8948
-50.9824
-51.1002
-51.2593
-51.478
-51.7884
-52.2526
-52.9999
-54.3277
-56.9626
-62.6379
-50.8789
-50.895
-50.9279
-50.9795
-51.0528
-51.1523
-51.2851
-51.462
-51.6999
-52.0257
-52.4831
-53.1372
-54.0529
-55.0856
-54.6405
-51.0034
-51.021
-51.057
-51.1133
-51.1926
-51.2992
-51.4395
-51.6224
-51.8606
-52.1718
-52.5771
-53.0932
-53.6967
-54.2349
-54.3758
-51.1157
-51.1343
-51.1722
-51.2311
-51.3135
-51.4229
-51.5643
-51.7443
-51.9709
-52.2525
-52.5945
-52.9883
-53.386
-53.6603
-53.5698
-51.2151
-51.2342
-51.273
-51.3328
-51.4156
-51.5243
-51.6624
-51.8339
-52.0428
-52.2914
-52.5764
-52.8808
-53.1611
-53.3392
-53.3377
-51.3014
-51.3205
-51.3592
-51.4185
-51.4999
-51.6054
-51.7372
-51.8974
-52.0872
-52.3053
-52.5451
-52.79
-53.007
-53.143
-53.1035
-51.3745
-51.3933
-51.4312
-51.4889
-51.5675
-51.6683
-51.7923
-51.9404
-52.112
-52.3043
-52.5106
-52.7186
-52.9093
-53.0688
-53.2406
-51.4347
-51.4529
-51.4894
-51.5449
-51.6198
-51.715
-51.8307
-51.967
-52.1223
-52.2936
-52.4754
-52.6591
-52.8331
-52.9864
-53.0962
-51.4823
-51.4997
-51.5346
-51.5874
-51.6582
-51.7475
-51.855
-51.9802
-52.1214
-52.2759
-52.4392
-52.6062
-52.7715
-52.9342
-53.0973
-51.518
-51.5345
-51.5675
-51.6173
-51.6839
-51.7673
-51.867
-51.9822
-52.1114
-52.252
-52.4008
-52.5546
-52.7115
-52.8821
-53.1405
-51.5422
-51.5577
-51.5889
-51.6357
-51.698
-51.7757
-51.8682
-51.9746
-52.0934
-52.2225
-52.3593
-52.5008
-52.6419
-52.7691
-52.7898
-51.5556
-51.5702
-51.5995
-51.6433
-51.7016
-51.7739
-51.8597
-51.9583
-52.0682
-52.1878
-52.315
-52.4473
-52.5819
-52.7303
-53.0254
-51.5589
-51.5726
-51.6
-51.641
-51.6953
-51.7627
-51.8425
-51.934
-52.0362
-52.1478
-52.2673
-52.392
-52.5124
-52.5896
-52.4271
-51.5527
-51.5656
-51.5912
-51.6294
-51.6801
-51.7429
-51.8171
-51.9023
-51.9977
-52.1024
-52.2163
-52.3397
-52.4729
-52.6155
-52.7537
-51.5376
-51.5496
-51.5736
-51.6093
-51.6566
-51.715
-51.7842
-51.8636
-51.9525
-52.0508
-52.159
-52.2806
-52.4268
-52.6447
-53.1756
-51.5142
-51.5255
-51.5478
-51.5812
-51.6253
-51.6798
-51.7442
-51.8181
-51.9009
-51.9922
-52.0927
-52.2045
-52.3309
-52.4566
-52.3543
-51.4831
-51.4936
-51.5145
-51.5456
-51.5868
-51.6376
-51.6977
-51.7665
-51.8432
-51.9273
-52.0186
-52.1182
-52.2354
-52.4271
-53.0731
-51.4446
-51.4544
-51.474
-51.5031
-51.5416
-51.5891
-51.6451
-51.7092
-51.7804
-51.8576
-51.9387
-52.0198
-52.088
-52.0822
-51.6079
-51.3994
-51.4086
-51.4268
-51.4541
-51.4901
-51.5345
-51.587
-51.647
-51.7135
-51.7851
-51.8591
-51.9304
-51.9919
-52.0627
-52.4456
-51.3478
-51.3564
-51.3735
-51.399
-51.4328
-51.4744
-51.5237
-51.5802
-51.643
-51.7109
-51.7814
-51.8478
-51.8894
-51.8265
-51.2715
-51.2902
-51.2982
-51.3143
-51.3382
-51.3699
-51.4091
-51.4555
-51.5089
-51.5689
-51.635
-51.7066
-51.7823
-51.8594
-51.9322
-51.9895
-51.227
-51.2345
-51.2496
-51.2721
-51.3018
-51.3386
-51.3824
-51.433
-51.4905
-51.5553
-51.629
-51.716
-51.8322
-52.0488
-52.7475
-51.1585
-51.1656
-51.1797
-51.2008
-51.2287
-51.2633
-51.3045
-51.3523
-51.407
-51.4695
-51.5421
-51.6292
-51.7354
-51.8305
-51.5599
-51.0851
-51.0917
-51.105
-51.1248
-51.151
-51.1834
-51.2221
-51.2669
-51.3181
-51.3767
-51.445
-51.5292
-51.6463
-51.8662
-52.6157
-51.007
-51.0132
-51.0257
-51.0443
-51.0689
-51.0993
-51.1353
-51.1769
-51.224
-51.277
-51.337
-51.4063
-51.4858
-51.534
-51.1219
-50.9245
-50.9304
-50.9421
-50.9596
-50.9827
-51.0111
-51.0447
-51.0831
-51.1259
-51.1724
-51.2223
-51.2764
-51.347
-51.5215
-52.413
-50.8379
-50.8434
-50.8545
-50.8709
-50.8927
-50.9194
-50.9507
-50.9863
-51.0251
-51.0656
-51.1045
-51.1349
-51.136
-51.011
-50.1448
-50.7473
-50.7526
-50.763
-50.7786
-50.7991
-50.8243
-50.8539
-50.8871
-50.9231
-50.9597
-50.9926
-51.0138
-51.0126
-51.0151
-51.4549
-50.653
-50.658
-50.6679
-50.6827
-50.7022
-50.7262
-50.7544
-50.7861
-50.8207
-50.8562
-50.8886
-50.9081
-50.8865
-50.7154
-49.8655
-50.5551
-50.5599
-50.5694
-50.5836
-50.6022
-50.6252
-50.6523
-50.6832
-50.7177
-50.7548
-50.7934
-50.831
-50.8643
-50.8871
-50.8927
-50.4539
-50.4585
-50.4676
-50.4811
-50.499
-50.5212
-50.5475
-50.5779
-50.6127
-50.6523
-50.6985
-50.7569
-50.8493
-51.0705
-51.9248
-50.3494
-50.3538
-50.3625
-50.3756
-50.3929
-50.4143
-50.4398
-50.4697
-50.5044
-50.5451
-50.5948
-50.6591
-50.7447
-50.8142
-50.4167
-50.2417
-50.2459
-50.2544
-50.267
-50.2837
-50.3044
-50.3291
-50.3581
-50.3918
-50.4316
-50.4807
-50.5465
-50.6513
-50.8821
-51.7687
-50.1309
-50.135
-50.1432
-50.1555
-50.1716
-50.1917
-50.2155
-50.2432
-50.275
-50.3116
-50.3545
-50.4069
-50.4703
-50.4945
-49.9533
-50.0171
-50.0212
-50.0292
-50.0411
-50.0568
-50.0762
-50.0991
-50.1254
-50.1548
-50.187
-50.2214
-50.2594
-50.3167
-50.4992
-51.5481
-49.9005
-49.9044
-49.9122
-49.9239
-49.9393
-49.9582
-49.9804
-50.0055
-50.0328
-50.0607
-50.0854
-50.0985
-50.076
-49.902
-48.8373
-49.7809
-49.7848
-49.7925
-49.804
-49.8191
-49.8378
-49.8596
-49.8842
-49.9105
-49.9364
-49.9568
-49.9622
-49.9406
-49.9231
-50.4246
-49.6585
-49.6623
-49.67
-49.6814
-49.6965
-49.715
-49.7369
-49.7616
-49.7885
-49.8156
-49.8382
-49.8446
-49.8023
-49.5836
-48.5639
-49.5333
-49.5371
-49.5447
-49.5561
-49.5712
-49.5899
-49.612
-49.6376
-49.6664
-49.6978
-49.7302
-49.7609
-49.7865
-49.8002
-49.7952
-49.4052
-49.409
-49.4167
-49.4281
-49.4433
-49.4621
-49.4848
-49.5115
-49.5426
-49.579
-49.6228
-49.6806
-49.7788
-50.0294
-51.0251
-49.2743
-49.2781
-49.2858
-49.2973
-49.3126
-49.3317
-49.3548
-49.3823
-49.4151
-49.4549
-49.5051
-49.5723
-49.6654
-49.7409
-49.2701
-49.1405
-49.1444
-49.1521
-49.1637
-49.179
-49.1983
-49.2216
-49.2495
-49.2827
-49.3232
-49.3747
-49.4461
-49.5641
-49.8314
-50.8692
-49.0039
-49.0077
-49.0155
-49.0272
-49.0426
-49.062
-49.0853
-49.1129
-49.1454
-49.1837
-49.2299
-49.2874
-49.3591
-49.3864
-48.7525
-48.8643
-48.8682
-48.8761
-48.8878
-48.9033
-48.9228
-48.946
-48.9731
-49.004
-49.0386
-49.0763
-49.1187
-49.185
-49.4003
-50.6371
-48.7218
-48.7258
-48.7337
-48.7455
-48.7612
-48.7807
-48.8039
-48.8307
-48.8602
-48.891
-48.9187
-48.9334
-48.9074
-48.7044
-47.4535
-48.5763
-48.5803
-48.5883
-48.6003
-48.6162
-48.6359
-48.6594
-48.6863
-48.7157
-48.7453
-48.7692
-48.7763
-48.7528
-48.7358
-49.3337
-48.4278
-48.4319
-48.44
-48.4521
-48.4683
-48.4884
-48.5124
-48.5402
-48.5711
-48.6031
-48.6307
-48.6402
-48.5937
-48.3397
-47.1374
-48.2763
-48.2804
-48.2886
-48.3009
-48.3173
-48.3379
-48.3628
-48.3921
-48.4258
-48.4636
-48.5038
-48.5432
-48.5785
-48.6018
-48.6039
-48.1217
-48.1258
-48.1341
-48.1466
-48.1633
-48.1844
-48.2101
-48.241
-48.2778
-48.3221
-48.3765
-48.4489
-48.5716
-48.8782
-50.0749
-47.9639
-47.9681
-47.9765
-47.9891
-48.006
-48.0274
-48.0537
-48.0857
-48.1248
-48.1733
-48.2355
-48.3197
-48.4371
-48.5361
-47.9838
-47.803
-47.8072
-47.8156
-47.8282
-47.8452
-47.8668
-47.8934
-47.9257
-47.9653
-48.0146
-48.0784
-48.1675
-48.3152
-48.6458
-49.9088
-47.639
-47.6431
-47.6515
-47.6641
-47.6811
-47.7025
-47.7289
-47.7607
-47.7991
-47.8455
-47.9024
-47.9746
-48.0664
-48.1075
-47.3526
-47.4717
-47.4759
-47.4842
-47.4967
-47.5135
-47.5347
-47.5606
-47.5914
-47.6273
-47.6686
-47.7149
-47.7682
-47.8527
-48.1215
-49.6373
-47.3013
-47.3054
-47.3136
-47.326
-47.3426
-47.3634
-47.3887
-47.4184
-47.4521
-47.488
-47.5212
-47.5399
-47.5112
-47.2689
-45.7513
-47.1278
-47.1318
-47.1399
-47.152
-47.1683
-47.1889
-47.2138
-47.2429
-47.2754
-47.3088
-47.3364
-47.3447
-47.3178
-47.3015
-48.0421
-46.9511
-46.9551
-46.963
-46.9749
-46.9909
-47.0112
-47.0359
-47.065
-47.0981
-47.1332
-47.1639
-47.1738
-47.117
-46.8079
-45.3364
-46.7715
-46.7753
-46.783
-46.7945
-46.8102
-46.8302
-46.8548
-46.8845
-46.9196
-46.9602
-47.0046
-47.0494
-47.0912
-47.1211
-47.1274
-46.5889
-46.5925
-46.5999
-46.611
-46.6262
-46.6457
-46.6701
-46.7002
-46.7375
-46.7842
-46.8438
-46.9269
-47.0738
-47.4499
-48.9269
-46.4034
-46.4068
-46.4138
-46.4244
-46.4389
-46.4576
-46.4813
-46.5111
-46.5491
-46.5986
-46.6654
-46.7601
-46.8971
-47.0137
-46.3291
-46.2152
-46.2184
-46.2249
-46.2348
-46.2483
-46.2659
-46.2882
-46.3164
-46.3528
-46.4007
-46.4663
-46.5638
-46.7346
-47.1332
-48.687
-46.0244
-46.0273
-46.0332
-46.0423
-46.0546
-46.0706
-46.0908
-46.1163
-46.1485
-46.1899
-46.2438
-46.3166
-46.4141
-46.4498
-45.5038
-45.8312
-45.8338
-45.8391
-45.8471
-45.858
-45.8721
-45.8898
-45.9116
-45.9381
-45.9698
-46.0068
-46.0522
-46.1363
-46.4476
-48.2925
-45.6359
-45.6381
-45.6427
-45.6495
-45.6589
-45.6709
-45.6858
-45.7037
-45.7242
-45.7457
-45.7625
-45.7608
-45.7008
-45.3797
-43.4961
-45.4386
-45.4405
-45.4442
-45.4499
-45.4576
-45.4675
-45.4796
-45.494
-45.5098
-45.5243
-45.5297
-45.5099
-45.4466
-45.3963
-46.2669
-45.2397
-45.2412
-45.2441
-45.2485
-45.2545
-45.2622
-45.2718
-45.2834
-45.2965
-45.3088
-45.3129
-45.2892
-45.1832
-44.7728
-42.9614
-45.0394
-45.0404
-45.0425
-45.0455
-45.0498
-45.0553
-45.0626
-45.072
-45.0839
-45.0985
-45.1137
-45.1257
-45.1313
-45.1214
-45.088
-44.8381
-44.8387
-44.8397
-44.8414
-44.8438
-44.847
-44.8518
-44.8588
-44.8698
-44.8871
-44.9152
-44.9666
-45.0903
-45.4855
-47.1963
-44.636
-44.6361
-44.6362
-44.6364
-44.6367
-44.6375
-44.6392
-44.6431
-44.6513
-44.6677
-44.6989
-44.7574
-44.8606
-44.9352
-44.0634
-44.4336
-44.4331
-44.4322
-44.4309
-44.4291
-44.427
-44.4251
-44.4245
-44.4274
-44.4376
-44.4621
-44.5171
-44.6507
-45.0415
-46.764
-44.231
-44.2301
-44.2282
-44.2253
-44.2212
-44.216
-44.21
-44.2037
-44.1985
-44.1969
-44.2025
-44.2223
-44.2624
-44.222
-43.0479
-44.0286
-44.0273
-44.0245
-44.02
-44.0137
-44.0054
-43.9949
-43.9822
-43.9674
-43.9506
-43.9314
-43.9133
-43.9298
-44.1892
-46.1395
-43.8269
-43.8251
-43.8214
-43.8156
-43.8073
-43.7961
-43.7813
-43.7623
-43.7379
-43.7054
-43.658
-43.5801
-43.4287
-42.9814
-40.8117
-43.6259
-43.6238
-43.6195
-43.6126
-43.6026
-43.5888
-43.5705
-43.5464
-43.5143
-43.47
-43.4039
-43.2981
-43.1331
-42.9687
-43.7611
-43.426
-43.4237
-43.4189
-43.4112
-43.4
-43.3845
-43.3637
-43.336
-43.2993
-43.2492
-43.1757
-43.0571
-42.8371
-42.2909
-40.3039
-43.2273
-43.2249
-43.2199
-43.2118
-43.2
-43.1836
-43.1614
-43.1321
-43.0939
-43.0439
-42.9772
-42.8866
-42.7676
-42.6128
-42.4342
-43.0299
-43.0275
-43.0226
-43.0146
-43.0028
-42.9864
-42.964
-42.9346
-42.8968
-42.8497
-42.7934
-42.736
-42.7228
-42.9504
-44.4457
-42.8337
-42.8315
-42.827
-42.8196
-42.8085
-42.7929
-42.7715
-42.743
-42.7064
-42.6612
-42.6086
-42.5545
-42.5109
-42.407
-41.3939
-42.6385
-42.6367
-42.6329
-42.6266
-42.617
-42.6032
-42.5838
-42.5573
-42.5222
-42.4774
-42.423
-42.3659
-42.3407
-42.4941
-43.7508
-42.4442
-42.443
-42.4402
-42.4354
-42.4281
-42.417
-42.4008
-42.3776
-42.3449
-42.2996
-42.2375
-42.1551
-42.0467
-41.8142
-40.5827
-42.2504
-42.2498
-42.2483
-42.2457
-42.2412
-42.2341
-42.2227
-42.2047
-42.1766
-42.1327
-42.0644
-41.9625
-41.8386
-41.8273
-42.968
-42.0566
-42.0567
-42.0568
-42.0567
-42.0559
-42.0538
-42.049
-42.0391
-42.0195
-41.9823
-41.9126
-41.7852
-41.5526
-41.0394
-39.2488
-41.8624
-41.8633
-41.865
-41.8676
-41.8711
-41.8751
-41.8788
-41.8802
-41.8749
-41.8538
-41.7992
-41.6808
-41.4613
-41.1378
-41.1936
-41.6671
-41.6687
-41.6721
-41.6776
-41.6855
-41.6963
-41.7101
-41.7262
-41.7414
-41.7481
-41.7281
-41.6467
-41.4423
-40.972
-39.7294
-41.4703
-41.4726
-41.4774
-41.4854
-41.4975
-41.5152
-41.5398
-41.5728
-41.6141
-41.6602
-41.6979
-41.698
-41.6079
-41.3417
-40.861
-41.2716
-41.2742
-41.2799
-41.2898
-41.3053
-41.3289
-41.3636
-41.4138
-41.4838
-41.5773
-41.6921
-41.8119
-41.8959
-41.8595
-41.6642
-41.0705
-41.0732
-41.0792
-41.0898
-41.1071
-41.1344
-41.1767
-41.241
-41.3374
-41.4792
-41.6807
-41.9508
-42.2674
-42.4869
-42.2545
-40.8672
-40.8696
-40.8749
-40.8847
-40.9015
-40.9294
-40.9744
-41.0461
-41.1597
-41.3388
-41.6199
-42.0573
-42.7065
-43.4273
-42.7717
-40.6619
-40.6634
-40.667
-40.6743
-40.6879
-40.7121
-40.7533
-40.8223
-40.9368
-41.127
-41.4487
-42.0167
-43.0959
-45.3226
-50.2507
-40.4551
-40.4552
-40.4561
-40.4591
-40.4667
-40.4825
-40.5128
-40.5671
-40.6614
-40.8232
-41.1045
-41.6211
-42.6887
-45.3409
-53.7459
-55.4094
-46.7862
-44.036
-42.9152
-42.3625
-42.0542
-41.8707
-41.7586
-41.6897
-41.6477
-41.6224
-41.6076
-41.5993
-41.595
-41.5931
-52.1926
-46.7937
-44.4318
-43.291
-42.6836
-42.3332
-42.1206
-41.9881
-41.9046
-41.8518
-41.8186
-41.798
-41.7856
-41.7787
-41.7756
-43.7046
-44.6913
-43.98
-43.2962
-42.8246
-42.5159
-42.3149
-42.1838
-42.0981
-42.042
-42.0056
-41.9823
-41.9677
-41.9593
-41.9555
-43.5623
-43.7671
-43.5093
-43.1541
-42.8509
-42.6232
-42.4608
-42.348
-42.2708
-42.2184
-42.1832
-42.16
-42.1451
-42.1364
-42.1324
-43.2831
-43.1631
-43.1067
-42.9756
-42.8231
-42.6843
-42.5723
-42.4877
-42.4262
-42.3825
-42.3521
-42.3314
-42.3179
-42.3098
-42.306
-41.8664
-42.5141
-42.7564
-42.8118
-42.7842
-42.7262
-42.6648
-42.6114
-42.5691
-42.5371
-42.5139
-42.4975
-42.4865
-42.4797
-42.4765
-41.2313
-42.1458
-42.536
-42.7054
-42.7649
-42.7698
-42.7518
-42.7277
-42.7047
-42.6855
-42.6705
-42.6594
-42.6517
-42.6468
-42.6445
-41.9699
-42.1407
-42.4693
-42.6752
-42.782
-42.8284
-42.8431
-42.8432
-42.8377
-42.8306
-42.824
-42.8185
-42.8144
-42.8117
-42.8104
-40.5917
-42.0251
-42.488