/*--------------------------------*- C++ -*----------------------------------*\
| =========                 |                                                 |
| \\      /  F ield         | OpenFOAM: The Open Source CFD Toolbox           |
|  \\    /   O peration     | Version:  5.x                                   |
|   \\  /    A nd           | Web:      www.OpenFOAM.org                      |
|    \\/     M anipulation  |                                                 |
\*---------------------------------------------------------------------------*/
FoamFile
{
    version     2.0;
    format      ascii;
    class       volScalarField;
    location    "3.7";
    object      T;
}
// * * * * * * * * * * * * * * * * * * * * * * * * * * * * * * * * * * * * * //

dimensions      [0 0 0 1 0 0 0];

internalField   nonuniform List<scalar> 
6300
(
322.757
322.271
321.786
321.301
320.816
320.333
319.851
319.37
318.89
318.413
317.937
317.464
316.993
316.524
316.058
322.757
322.271
321.785
321.3
320.815
320.332
319.849
319.368
318.889
318.411
317.935
317.461
316.99
316.521
316.055
322.757
322.27
321.784
321.298
320.813
320.329
319.846
319.365
318.885
318.407
317.931
317.457
316.985
316.516
316.05
322.756
322.269
321.782
321.296
320.811
320.326
319.842
319.36
318.88
318.401
317.924
317.45
316.978
316.508
316.041
322.756
322.268
321.78
321.293
320.807
320.321
319.837
319.354
318.872
318.393
317.915
317.44
316.967
316.497
316.03
322.755
322.267
321.778
321.29
320.802
320.316
319.83
319.346
318.863
318.383
317.904
317.428
316.955
316.484
316.016
322.755
322.265
321.775
321.285
320.797
320.309
319.822
319.336
318.852
318.37
317.891
317.413
316.939
316.468
315.999
322.754
322.263
321.771
321.28
320.79
320.301
319.812
319.325
318.839
318.356
317.874
317.396
316.92
316.448
315.979
322.753
322.26
321.767
321.275
320.783
320.292
319.801
319.312
318.825
318.339
317.856
317.375
316.898
316.425
315.956
322.753
322.258
321.763
321.269
320.775
320.282
319.789
319.298
318.808
318.32
317.834
317.351
316.872
316.397
315.928
322.752
322.255
321.759
321.262
320.766
320.271
319.776
319.282
318.789
318.298
317.809
317.323
316.841
316.365
315.895
322.751
322.252
321.754
321.256
320.757
320.26
319.762
319.265
318.769
318.274
317.781
317.291
316.805
316.325
315.855
322.75
322.249
321.749
321.248
320.748
320.248
319.748
319.247
318.748
318.249
317.75
317.254
316.762
316.277
315.804
322.749
322.246
321.744
321.241
320.739
320.236
319.733
319.229
318.726
318.222
317.718
317.214
316.712
316.216
315.735
322.748
322.244
321.739
321.234
320.73
320.224
319.718
319.212
318.704
318.195
317.685
317.172
316.657
316.139
315.631
315.633
315.249
314.867
314.486
314.109
313.733
313.36
312.989
312.621
312.255
311.893
311.533
311.177
310.824
310.475
310.129
309.787
309.449
309.114
308.783
308.455
308.131
307.811
307.494
307.181
306.871
306.564
306.26
305.958
305.66
305.364
305.07
304.778
304.488
304.2
303.914
303.63
303.347
303.065
302.785
302.506
302.229
301.952
301.677
301.403
301.13
300.858
300.587
300.317
300.047
299.779
299.511
299.244
298.977
298.711
298.445
298.179
297.914
297.648
297.382
297.116
296.849
296.582
296.315
296.047
295.778
295.508
295.238
294.966
294.694
294.42
294.146
293.87
293.593
293.314
293.034
292.753
292.47
292.186
291.9
291.612
291.322
291.031
290.737
290.442
290.145
289.846
289.544
289.241
288.935
315.63
315.246
314.864
314.483
314.105
313.729
313.356
312.985
312.617
312.251
311.888
311.529
311.172
310.819
310.47
310.124
309.782
309.443
309.108
308.777
308.45
308.126
307.806
307.49
307.176
306.866
306.56
306.256
305.955
305.656
305.36
305.066
304.775
304.485
304.198
303.912
303.627
303.345
303.063
302.783
302.504
302.227
301.951
301.675
301.401
301.128
300.856
300.585
300.315
300.046
299.778
299.51
299.243
298.977
298.71
298.445
298.179
297.914
297.648
297.382
297.116
296.85
296.583
296.316
296.048
295.779
295.509
295.239
294.968
294.695
294.422
294.147
293.871
293.594
293.316
293.036
292.755
292.472
292.188
291.902
291.614
291.325
291.033
290.74
290.445
290.148
289.849
289.547
289.244
288.938
315.624
315.24
314.857
314.477
314.099
313.723
313.349
312.977
312.609
312.243
311.879
311.519
311.163
310.809
310.46
310.113
309.771
309.432
309.098
308.767
308.439
308.116
307.796
307.48
307.167
306.857
306.551
306.247
305.947
305.649
305.353
305.06
304.769
304.48
304.192
303.907
303.623
303.34
303.059
302.779
302.501
302.223
301.947
301.672
301.398
301.125
300.853
300.582
300.312
300.043
299.775
299.508
299.241
298.975
298.709
298.444
298.179
297.913
297.648
297.383
297.117
296.851
296.584
296.317
296.049
295.781
295.512
295.241
294.97
294.698
294.425
294.15
293.875
293.598
293.32
293.04
292.759
292.477
292.192
291.907
291.619
291.33
291.039
290.746
290.451
290.153
289.854
289.553
289.25
288.944
315.616
315.231
314.848
314.468
314.089
313.712
313.338
312.966
312.597
312.23
311.866
311.505
311.148
310.794
310.444
310.097
309.755
309.416
309.081
308.75
308.423
308.1
307.78
307.465
307.152
306.844
306.538
306.235
305.935
305.638
305.343
305.05
304.76
304.471
304.185
303.899
303.616
303.334
303.053
302.773
302.495
302.218
301.942
301.667
301.393
301.12
300.848
300.578
300.308
300.039
299.772
299.505
299.238
298.973
298.707
298.443
298.178
297.913
297.648
297.384
297.118
296.853
296.586
296.32
296.052
295.784
295.515
295.245
294.974
294.702
294.429
294.155
293.88
293.603
293.325
293.046
292.765
292.483
292.199
291.914
291.626
291.337
291.047
290.754
290.459
290.162
289.863
289.562
289.259
288.953
315.605
315.22
314.836
314.455
314.076
313.699
313.324
312.951
312.58
312.213
311.848
311.486
311.128
310.773
310.423
310.076
309.733
309.394
309.059
308.728
308.401
308.079
307.76
307.445
307.133
306.825
306.52
306.219
305.92
305.623
305.329
305.038
304.748
304.46
304.174
303.89
303.607
303.325
303.045
302.765
302.487
302.211
301.935
301.66
301.386
301.114
300.842
300.572
300.302
300.034
299.767
299.5
299.235
298.97
298.705
298.441
298.177
297.913
297.649
297.385
297.12
296.855
296.589
296.323
296.056
295.788
295.519
295.25
294.979
294.708
294.435
294.162
293.887
293.61
293.333
293.054
292.774
292.492
292.208
291.923
291.636
291.348
291.057
290.765
290.47
290.174
289.875
289.574
289.271
288.965
315.59
315.205
314.822
314.44
314.06
313.682
313.306
312.932
312.56
312.191
311.825
311.462
311.103
310.747
310.396
310.048
309.705
309.366
309.031
308.7
308.374
308.052
307.733
307.419
307.109
306.802
306.498
306.198
305.9
305.605
305.312
305.022
304.733
304.447
304.161
303.878
303.595
303.314
303.035
302.756
302.478
302.202
301.926
301.651
301.378
301.105
300.834
300.564
300.295
300.027
299.76
299.495
299.23
298.966
298.702
298.439
298.176
297.913
297.649
297.386
297.122
296.858
296.592
296.327
296.06
295.793
295.525
295.256
294.986
294.715
294.443
294.169
293.895
293.619
293.342
293.064
292.784
292.503
292.22
291.935
291.649
291.36
291.07
290.778
290.484
290.188
289.89
289.589
289.286
288.98
315.573
315.188
314.804
314.422
314.042
313.663
313.286
312.91
312.537
312.166
311.798
311.433
311.072
310.716
310.363
310.015
309.671
309.332
308.997
308.666
308.34
308.019
307.701
307.388
307.079
306.774
306.472
306.173
305.877
305.583
305.292
305.003
304.716
304.431
304.146
303.864
303.582
303.302
303.023
302.745
302.467
302.191
301.916
301.641
301.368
301.095
300.824
300.554
300.286
300.018
299.752
299.488
299.224
298.961
298.698
298.436
298.174
297.912
297.65
297.388
297.125
296.861
296.597
296.332
296.066
295.799
295.532
295.263
294.994
294.724
294.452
294.179
293.905
293.63
293.353
293.076
292.796
292.516
292.233
291.949
291.663
291.376
291.086
290.795
290.501
290.206
289.908
289.608
289.305
288.999
315.553
315.168
314.784
314.402
314.021
313.642
313.263
312.885
312.509
312.136
311.765
311.398
311.036
310.678
310.324
309.975
309.631
309.291
308.956
308.626
308.3
307.979
307.663
307.352
307.044
306.741
306.441
306.144
305.85
305.558
305.269
304.982
304.697
304.412
304.129
303.848
303.567
303.287
303.009
302.732
302.455
302.179
301.904
301.63
301.356
301.083
300.812
300.542
300.274
300.008
299.743
299.479
299.217
298.955
298.694
298.433
298.173
297.912
297.652
297.39
297.128
296.865
296.602
296.337
296.072
295.806
295.54
295.272
295.004
294.734
294.463
294.19
293.917
293.642
293.366
293.089
292.811
292.531
292.249
291.966
291.681
291.393
291.105
290.814
290.522
290.227
289.93
289.63
289.328
289.022
315.53
315.145
314.762
314.38
313.999
313.619
313.238
312.858
312.478
312.101
311.727
311.357
310.992
310.633
310.278
309.929
309.584
309.244
308.908
308.578
308.253
307.933
307.619
307.309
307.004
306.703
306.405
306.11
305.819
305.53
305.243
304.958
304.675
304.392
304.111
303.83
303.55
303.271
302.994
302.718
302.442
302.167
301.892
301.617
301.343
301.069
300.798
300.528
300.26
299.995
299.731
299.469
299.208
298.948
298.689
298.43
298.171
297.913
297.654
297.394
297.133
296.871
296.608
296.344
296.079
295.814
295.549
295.282
295.015
294.745
294.475
294.203
293.93
293.656
293.381
293.105
292.828
292.549
292.268
291.985
291.7
291.414
291.126
290.836
290.545
290.251
289.956
289.657
289.355
289.049
315.503
315.119
314.738
314.358
313.977
313.596
313.213
312.829
312.445
312.062
311.683
311.309
310.942
310.58
310.225
309.876
309.53
309.189
308.853
308.522
308.198
307.879
307.567
307.26
306.958
306.659
306.364
306.072
305.783
305.498
305.214
304.932
304.652
304.371
304.091
303.811
303.531
303.254
302.977
302.702
302.428
302.153
301.878
301.603
301.328
301.053
300.78
300.51
300.243
299.979
299.717
299.457
299.198
298.94
298.683
298.426
298.169
297.913
297.657
297.399
297.139
296.878
296.615
296.351
296.087
295.823
295.559
295.294
295.028
294.759
294.489
294.217
293.944
293.67
293.397
293.122
292.847
292.569
292.289
292.007
291.722
291.436
291.149
290.86
290.571
290.279
289.985
289.688
289.387
289.081
315.471
315.09
314.712
314.335
313.957
313.575
313.189
312.8
312.408
312.018
311.632
311.253
310.882
310.519
310.165
309.816
309.47
309.128
308.791
308.458
308.133
307.816
307.507
307.204
306.906
306.612
306.319
306.03
305.744
305.462
305.183
304.905
304.628
304.349
304.07
303.79
303.511
303.233
302.959
302.686
302.414
302.141
301.866
301.589
301.311
301.034
300.759
300.488
300.221
299.959
299.7
299.443
299.187
298.931
298.676
298.421
298.167
297.915
297.661
297.406
297.147
296.886
296.623
296.359
296.095
295.833
295.571
295.308
295.043
294.776
294.505
294.233
293.959
293.686
293.413
293.141
292.868
292.593
292.314
292.032
291.747
291.46
291.173
290.886
290.599
290.311
290.02
289.724
289.424
289.119
315.434
315.057
314.685
314.314
313.941
313.56
313.171
312.773
312.371
311.968
311.571
311.184
310.809
310.447
310.096
309.75
309.405
309.061
308.72
308.384
308.058
307.742
307.437
307.141
306.85
306.56
306.27
305.982
305.699
305.421
305.149
304.878
304.605
304.329
304.05
303.768
303.487
303.21
302.937
302.668
302.401
302.13
301.856
301.577
301.294
301.012
300.733
300.459
300.193
299.934
299.68
299.429
299.176
298.922
298.667
298.414
298.164
297.917
297.669
297.417
297.16
296.898
296.633
296.366
296.102
295.84
295.583
295.325
295.063
294.796
294.525
294.25
293.973
293.699
293.429
293.161
292.893
292.621
292.344
292.061
291.773
291.484
291.197
290.912
290.63
290.347
290.06
289.768
289.469
289.165
315.387
315.019
314.654
314.297
313.936
313.557
313.164
312.753
312.334
311.908
311.496
311.096
310.719
310.359
310.019
309.683
309.339
308.992
308.639
308.297
307.966
307.653
307.354
307.071
306.792
306.507
306.219
305.928
305.647
305.373
305.113
304.854
304.587
304.314
304.032
303.746
303.458
303.179
302.908
302.649
302.392
302.126
301.853
301.568
301.278
300.984
300.698
300.419
300.155
299.9
299.657
299.416
299.167
298.913
298.655
298.403
298.157
297.919
297.682
297.434
297.18
296.914
296.644
296.369
296.103
295.844
295.595
295.347
295.089
294.824
294.548
294.269
293.984
293.708
293.44
293.182
292.925
292.657
292.382
292.095
291.803
291.505
291.216
290.933
290.662
290.39
290.108
289.82
289.52
289.219
315.325
314.978
314.61
314.286
313.957
313.573
313.184
312.743
312.308
311.829
311.402
310.976
310.605
310.244
309.935
309.629
309.278
308.929
308.542
308.195
307.848
307.545
307.249
306.995
306.744
306.457
306.173
305.86
305.582
305.308
305.073
304.841
304.578
304.314
304.018
303.729
303.415
303.136
302.862
302.628
302.397
302.132
301.866
301.565
301.27
300.944
300.652
300.359
300.102
299.85
299.632
299.414
299.163
298.912
298.634
298.384
298.136
297.922
297.708
297.463
297.215
296.936
296.662
296.361
296.094
295.831
295.605
295.382
295.126
294.868
294.578
294.294
293.983
293.707
293.435
293.201
292.97
292.705
292.438
292.136
291.84
291.515
291.226
290.939
290.693
290.448
290.167
289.887
289.575
289.285
315.227
314.965
314.504
314.281
314.058
313.597
313.281
312.723
312.347
311.675
311.307
310.775
310.477
310.053
309.846
309.639
309.214
308.92
308.388
308.094
307.666
307.426
307.083
306.914
306.746
306.403
306.167
305.742
305.511
305.185
305.028
304.875
304.568
304.359
303.994
303.75
303.319
303.086
302.76
302.602
302.449
302.14
301.928
301.556
301.304
300.855
300.607
300.247
300.043
299.751
299.606
299.46
299.159
298.95
298.571
298.363
298.067
297.923
297.781
297.494
297.297
296.95
296.717
296.304
296.08
295.765
295.613
295.464
295.164
294.958
294.598
294.357
293.931
293.7
293.374
293.217
293.064
292.755
292.542
292.17
291.919
291.473
291.231
290.887
290.721
290.557
290.225
289.998
289.6
289.378
288.597
288.225
287.85
287.472
287.092
286.71
286.325
285.939
285.55
285.16
284.769
284.377
283.984
283.591
283.197
288.6
288.228
287.853
287.475
287.095
286.712
286.327
285.94
285.552
285.162
284.77
284.378
283.985
283.591
283.197
288.606
288.233
287.858
287.48
287.099
286.716
286.331
285.944
285.555
285.164
284.772
284.379
283.986
283.592
283.197
288.614
288.242
287.866
287.488
287.106
286.723
286.337
285.949
285.559
285.168
284.775
284.382
283.988
283.593
283.198
288.626
288.253
287.877
287.498
287.116
286.731
286.344
285.955
285.565
285.173
284.779
284.385
283.99
283.594
283.198
288.641
288.268
287.891
287.511
287.128
286.742
286.354
285.964
285.572
285.179
284.784
284.389
283.992
283.596
283.199
288.66
288.286
287.908
287.527
287.142
286.755
286.366
285.974
285.581
285.186
284.79
284.393
283.996
283.598
283.199
288.682
288.307
287.928
287.546
287.16
286.771
286.379
285.986
285.591
285.195
284.797
284.398
283.999
283.6
283.2
288.709
288.333
287.953
287.568
287.18
286.789
286.395
286
285.602
285.204
284.805
284.404
284.004
283.602
283.201
288.741
288.363
287.981
287.594
287.203
286.809
286.413
286.015
285.615
285.215
284.813
284.411
284.008
283.605
283.202
288.778
288.399
288.014
287.623
287.229
286.831
286.432
286.031
285.629
285.226
284.822
284.418
284.013
283.608
283.203
288.823
288.441
288.051
287.656
287.257
286.856
286.453
286.049
285.644
285.238
284.832
284.425
284.018
283.611
283.204
288.877
288.491
288.094
287.693
287.288
286.882
286.475
286.067
285.659
285.251
284.842
284.433
284.024
283.614
283.205
288.946
288.55
288.143
287.732
287.321
286.909
286.498
286.086
285.675
285.264
284.852
284.441
284.029
283.618
283.206
289.04
288.62
288.195
287.773
287.353
286.936
286.52
286.105
285.691
285.277
284.863
284.449
284.035
283.621
283.207
322.747
322.241
321.735
321.228
320.721
320.214
319.706
319.196
318.685
318.172
317.656
317.136
316.607
316.062
315.473
322.746
322.239
321.731
321.223
320.715
320.205
319.695
319.183
318.67
318.154
317.634
317.109
316.574
316.022
315.435
322.746
322.237
321.728
321.218
320.708
320.197
319.685
319.171
318.656
318.137
317.615
317.088
316.553
316.007
315.451
322.745
322.235
321.725
321.214
320.702
320.19
319.676
319.161
318.644
318.124
317.6
317.072
316.539
315.998
315.454
322.744
322.233
321.722
321.21
320.697
320.184
319.669
319.152
318.634
318.113
317.589
317.061
316.529
315.993
315.456
322.744
322.232
321.719
321.206
320.693
320.178
319.662
319.145
318.625
318.104
317.58
317.052
316.522
315.989
315.455
322.744
322.23
321.717
321.203
320.689
320.173
319.657
319.139
318.619
318.097
317.573
317.046
316.517
315.986
315.454
322.743
322.229
321.715
321.201
320.686
320.169
319.652
319.134
318.613
318.091
317.567
317.041
316.513
315.983
315.452
322.743
322.228
321.714
321.199
320.683
320.166
319.649
319.13
318.609
318.087
317.563
317.038
316.51
315.981
315.45
322.743
322.228
321.713
321.197
320.681
320.164
319.646
319.127
318.606
318.084
317.561
317.036
316.509
315.98
315.45
322.742
322.227
321.712
321.196
320.679
320.162
319.644
319.125
318.604
318.083
317.559
317.035
316.508
315.98
315.451
322.742
322.227
321.711
321.195
320.678
320.161
319.643
319.124
318.603
318.082
317.559
317.035
316.509
315.982
315.454
322.742
322.227
321.711
321.195
320.678
320.161
319.642
319.123
318.603
318.082
317.56
317.036
316.511
315.984
315.456
322.742
322.227
321.711
321.195
320.678
320.161
319.643
319.124
318.604
318.083
317.561
317.038
316.513
315.988
315.461
322.742
322.227
321.711
321.195
320.678
320.161
319.643
319.125
318.605
318.085
317.563
317.041
316.517
315.991
315.464
322.742
322.227
321.711
321.195
320.679
320.162
319.645
319.127
318.608
318.088
317.567
317.044
316.521
315.996
315.468
322.742
322.227
321.712
321.196
320.68
320.164
319.647
319.129
318.61
318.091
317.571
317.049
316.526
316.002
315.477
322.743
322.228
321.713
321.197
320.682
320.166
319.649
319.132
318.614
318.095
317.575
317.055
316.533
316.01
315.484
322.743
322.228
321.714
321.199
320.684
320.168
319.652
319.135
318.618
318.099
317.581
317.061
316.54
316.019
315.498
322.743
322.229
321.715
321.2
320.686
320.171
319.655
319.139
318.622
318.105
317.586
317.067
316.548
316.028
315.507
322.743
322.23
321.716
321.202
320.688
320.174
319.659
319.143
318.627
318.11
317.593
317.075
316.556
316.037
315.519
322.744
322.231
321.718
321.204
320.691
320.177
319.663
319.148
318.632
318.116
317.6
317.082
316.564
316.045
315.525
322.744
322.232
321.719
321.207
320.694
320.181
319.667
319.153
318.638
318.123
317.607
317.091
316.573
316.054
315.532
322.744
322.233
321.721
321.209
320.697
320.184
319.672
319.158
318.645
318.13
317.615
317.099
316.583
316.065
315.546
322.745
322.234
321.723
321.212
320.7
320.189
319.677
319.164
318.651
318.138
317.624
317.109
316.593
316.076
315.556
322.745
322.235
321.725
321.214
320.704
320.193
319.682
319.17
318.658
318.146
317.633
317.119
316.605
316.089
315.574
322.745
322.236
321.727
321.217
320.708
320.198
319.687
319.177
318.666
318.154
317.642
317.13
316.617
316.103
315.586
322.746
322.237
321.729
321.22
320.712
320.202
319.693
319.183
318.673
318.163
317.652
317.141
316.629
316.118
315.609
322.746
322.239
321.731
321.224
320.716
320.208
319.699
319.19
318.681
318.172
317.662
317.152
316.642
316.132
315.622
322.747
322.24
321.734
321.227
320.72
320.213
319.705
319.198
318.69
318.181
317.673
317.164
316.654
316.146
315.64
322.747
322.242
321.736
321.23
320.724
320.218
319.712
319.205
318.698
318.191
317.683
317.175
316.666
316.158
315.649
322.748
322.243
321.739
321.234
320.729
320.224
319.719
319.213
318.707
318.201
317.694
317.187
316.679
316.17
315.657
322.748
322.245
321.741
321.238
320.734
320.23
319.725
319.221
318.716
318.211
317.705
317.199
316.692
316.184
315.676
322.749
322.246
321.744
321.241
320.739
320.236
319.732
319.229
318.725
318.221
317.717
317.212
316.706
316.199
315.688
322.749
322.248
321.747
321.245
320.744
320.242
319.74
319.237
318.735
318.232
317.729
317.225
316.72
316.215
315.711
322.75
322.25
321.749
321.249
320.749
320.248
319.747
319.246
318.745
318.243
317.741
317.239
316.736
316.232
315.726
322.751
322.251
321.752
321.253
320.754
320.254
319.755
319.255
318.755
318.254
317.753
317.252
316.751
316.251
315.753
322.751
322.253
321.755
321.257
320.759
320.261
319.763
319.264
318.765
318.266
317.766
317.267
316.767
316.268
315.768
322.752
322.255
321.758
321.262
320.765
320.268
319.771
319.273
318.775
318.277
317.779
317.281
316.782
316.284
315.79
322.752
322.257
321.762
321.266
320.77
320.275
319.779
319.282
318.786
318.289
317.792
317.295
316.797
316.299
315.801
322.753
322.259
321.765
321.271
320.776
320.282
319.787
319.292
318.797
318.301
317.805
317.309
316.812
316.313
315.811
322.754
322.261
321.768
321.275
320.782
320.289
319.795
319.302
318.808
318.314
317.819
317.323
316.827
316.33
315.832
322.754
322.263
321.771
321.28
320.788
320.296
319.804
319.312
318.819
318.326
317.833
317.339
316.844
316.347
315.847
322.755
322.265
321.775
321.285
320.794
320.304
319.813
319.322
318.831
318.339
317.847
317.355
316.861
316.367
315.874
322.756
322.267
321.778
321.29
320.801
320.311
319.822
319.333
318.843
318.352
317.862
317.371
316.88
316.387
315.891
322.756
322.269
321.782
321.294
320.807
320.319
319.831
319.343
318.855
318.366
317.877
317.388
316.898
316.409
315.924
322.757
322.271
321.786
321.3
320.814
320.327
319.841
319.354
318.867
318.38
317.892
317.404
316.917
316.429
315.942
322.758
322.274
321.789
321.305
320.82
320.335
319.85
319.365
318.88
318.394
317.908
317.421
316.935
316.449
315.968
322.759
322.276
321.793
321.31
320.827
320.344
319.86
319.376
318.892
318.408
317.923
317.438
316.952
316.466
315.98
322.759
322.278
321.797
321.315
320.834
320.352
319.87
319.388
318.905
318.422
317.939
317.455
316.97
316.484
315.992
322.76
322.281
321.801
321.321
320.841
320.361
319.88
319.4
318.919
318.437
317.955
317.473
316.989
316.504
316.018
322.761
322.283
321.805
321.327
320.848
320.37
319.891
319.412
318.932
318.453
317.972
317.491
317.009
316.525
316.036
322.762
322.285
321.809
321.332
320.856
320.379
319.902
319.424
318.946
318.468
317.989
317.51
317.03
316.549
316.068
322.763
322.288
321.813
321.338
320.863
320.388
319.913
319.437
318.961
318.484
318.007
317.53
317.052
316.573
316.09
322.763
322.29
321.817
321.344
320.871
320.397
319.924
319.45
318.975
318.501
318.025
317.55
317.075
316.6
316.129
322.764
322.293
321.822
321.35
320.879
320.407
319.935
319.463
318.99
318.517
318.044
317.57
317.097
316.624
316.151
322.765
322.296
321.826
321.356
320.887
320.417
319.946
319.476
319.005
318.534
318.062
317.591
317.119
316.648
316.183
322.766
322.298
321.831
321.363
320.895
320.427
319.958
319.489
319.02
318.551
318.081
317.611
317.14
316.669
316.198
322.767
322.301
321.835
321.369
320.903
320.437
319.97
319.503
319.036
318.568
318.1
317.632
317.162
316.69
316.213
322.768
322.304
321.84
321.376
320.911
320.447
319.982
319.517
319.052
318.586
318.12
317.653
317.185
316.715
316.245
322.769
322.307
321.845
321.382
320.92
320.457
319.995
319.532
319.068
318.604
318.14
317.675
317.209
316.74
316.266
322.77
322.31
321.849
321.389
320.928
320.468
320.007
319.546
319.085
318.623
318.161
317.698
317.235
316.77
316.306
322.771
322.313
321.854
321.396
320.937
320.479
320.02
319.561
319.102
318.642
318.182
317.722
317.261
316.799
316.332
322.772
322.315
321.859
321.403
320.946
320.489
320.033
319.576
319.119
318.661
318.204
317.746
317.288
316.832
316.381
322.773
322.318
321.864
321.41
320.955
320.5
320.046
319.591
319.136
318.681
318.225
317.77
317.315
316.861
316.407
322.774
322.321
321.869
321.417
320.964
320.511
320.059
319.606
319.153
318.7
318.247
317.794
317.341
316.89
316.446
322.775
322.324
321.874
321.424
320.973
320.523
320.072
319.621
319.171
318.72
318.269
317.817
317.366
316.915
316.464
322.776
322.327
321.879
321.431
320.982
320.534
320.085
319.637
319.188
318.739
318.29
317.841
317.391
316.939
316.481
322.777
322.33
321.884
321.438
320.991
320.545
320.099
319.652
319.206
318.759
318.312
317.865
317.417
316.968
316.519
322.778
322.333
321.889
321.445
321.001
320.556
320.112
319.668
319.224
318.779
318.335
317.89
317.444
316.997
316.544
322.779
322.337
321.894
321.452
321.01
320.568
320.125
319.683
319.241
318.799
318.357
317.915
317.473
317.03
316.589
322.78
322.34
321.899
321.459
321.019
320.579
320.139
319.699
319.259
318.82
318.38
317.941
317.502
317.062
316.618
322.781
322.343
321.904
321.466
321.028
320.59
320.152
319.714
319.277
318.84
318.403
317.966
317.531
317.098
316.672
322.782
322.346
321.909
321.473
321.037
320.601
320.165
319.73
319.294
318.859
318.425
317.991
317.559
317.129
316.7
322.783
322.349
321.914
321.48
321.046
320.612
320.178
319.745
319.312
318.879
318.447
318.015
317.586
317.159
316.74
322.784
322.352
321.919
321.487
321.055
320.623
320.191
319.76
319.329
318.898
318.468
318.039
317.61
317.183
316.758
322.785
322.355
321.924
321.494
321.064
320.634
320.204
319.775
319.346
318.917
318.489
318.061
317.634
317.207
316.775
322.786
322.357
321.929
321.501
321.073
320.645
320.217
319.789
319.362
318.935
318.509
318.083
317.658
317.233
316.81
322.787
322.36
321.934
321.508
321.082
320.655
320.229
319.804
319.378
318.953
318.529
318.105
317.681
317.258
316.832
322.788
322.363
321.939
321.515
321.09
320.666
320.242
319.818
319.394
318.971
318.548
318.126
317.705
317.285
316.869
322.789
322.366
321.944
321.521
321.099
320.676
320.254
319.832
319.41
318.988
318.567
318.147
317.728
317.31
316.892
322.79
322.369
321.949
321.528
321.107
320.687
320.266
319.846
319.426
319.006
318.586
318.167
317.75
317.336
316.929
322.791
322.372
321.953
321.535
321.116
320.697
320.279
319.86
319.441
319.022
318.604
318.186
317.77
317.357
316.948
322.792
322.375
321.958
321.542
321.125
320.708
320.291
319.874
319.456
319.039
318.621
318.204
317.788
317.375
316.969
322.793
322.378
321.963
321.548
321.133
320.718
320.303
319.888
319.472
319.055
318.639
318.221
317.805
317.389
316.978
322.794
322.381
321.968
321.555
321.142
320.729
320.316
319.902
319.488
319.072
318.656
318.238
317.82
317.401
316.983
322.795
322.384
321.973
321.562
321.151
320.74
320.329
319.917
319.504
319.09
318.674
318.256
317.835
317.411
316.986
322.796
322.387
321.978
321.569
321.161
320.751
320.342
319.932
319.521
319.109
318.694
318.276
317.853
317.422
316.985
322.797
322.39
321.983
321.577
321.17
320.763
320.356
319.948
319.539
319.129
318.717
318.3
317.876
317.438
316.97
322.798
322.393
321.989
321.584
321.179
320.775
320.37
319.964
319.558
319.151
318.742
318.329
317.91
317.475
317.003
289.175
288.688
288.24
287.807
287.381
286.96
286.54
286.122
285.705
285.288
284.872
284.456
284.04
283.624
283.208
289.206
288.722
288.27
287.833
287.404
286.979
286.557
286.137
285.717
285.299
284.88
284.462
284.044
283.627
283.209
289.183
288.733
288.289
287.854
287.423
286.997
286.573
286.151
285.729
285.309
284.889
284.469
284.049
283.629
283.21
289.179
288.74
288.303
287.87
287.44
287.013
286.588
286.164
285.741
285.319
284.897
284.475
284.053
283.632
283.211
289.178
288.747
288.315
287.884
287.455
287.028
286.602
286.177
285.752
285.328
284.904
284.481
284.058
283.635
283.212
289.176
288.753
288.326
287.898
287.469
287.042
286.615
286.189
285.763
285.337
284.912
284.487
284.062
283.637
283.212
289.18
288.761
288.337
287.911
287.483
287.055
286.628
286.2
285.773
285.346
284.919
284.493
284.066
283.64
283.213
289.193
288.774
288.35
287.924
287.497
287.069
286.64
286.212
285.783
285.355
284.927
284.498
284.07
283.642
283.214
289.206
288.789
288.365
287.939
287.511
287.082
286.653
286.223
285.793
285.364
284.934
284.504
284.074
283.645
283.215
289.234
288.808
288.382
287.954
287.526
287.096
286.665
286.235
285.804
285.372
284.941
284.51
284.078
283.647
283.216
289.251
288.827
288.4
287.971
287.541
287.11
286.678
286.246
285.814
285.381
284.948
284.516
284.083
283.65
283.217
289.281
288.849
288.419
287.988
287.557
287.124
286.691
286.258
285.824
285.39
284.956
284.521
284.087
283.652
283.217
289.299
288.87
288.438
288.006
287.573
287.139
286.705
286.27
285.835
285.399
284.963
284.527
284.091
283.655
283.218
289.328
288.892
288.458
288.025
287.59
287.155
286.719
286.282
285.845
285.408
284.971
284.533
284.095
283.657
283.219
289.342
288.911
288.478
288.044
287.608
287.171
286.733
286.295
285.856
285.417
284.978
284.539
284.099
283.66
283.22
289.358
288.932
288.499
288.063
287.626
287.187
286.748
286.308
285.868
285.427
284.986
284.545
284.103
283.662
283.221
289.393
288.958
288.522
288.084
287.645
287.204
286.763
286.321
285.879
285.436
284.994
284.551
284.108
283.665
283.222
289.418
288.985
288.547
288.106
287.664
287.221
286.778
286.334
285.89
285.446
285.002
284.557
284.112
283.667
283.222
289.465
289.017
288.573
288.129
287.684
287.239
286.794
286.348
285.902
285.456
285.01
284.563
284.117
283.67
283.223
289.492
289.046
288.598
288.151
287.704
287.257
286.809
286.362
285.914
285.466
285.018
284.57
284.121
283.673
283.224
289.532
289.076
288.624
288.174
287.724
287.275
286.825
286.376
285.926
285.476
285.026
284.576
284.126
283.675
283.225
289.555
289.102
288.649
288.196
287.744
287.293
286.841
286.39
285.938
285.486
285.034
284.582
284.13
283.678
283.226
289.589
289.128
288.672
288.218
287.764
287.311
286.857
286.404
285.95
285.496
285.043
284.589
284.135
283.681
283.227
289.605
289.15
288.695
288.24
287.784
287.329
286.873
286.418
285.962
285.506
285.051
284.595
284.139
283.684
283.228
289.622
289.173
288.718
288.261
287.804
287.347
286.889
286.432
285.974
285.517
285.059
284.602
284.144
283.686
283.229
289.657
289.2
288.742
288.283
287.824
287.365
286.905
286.446
285.986
285.527
285.067
284.608
284.149
283.689
283.23
289.682
289.227
288.767
288.306
287.844
287.383
286.921
286.46
285.998
285.537
285.076
284.614
284.153
283.692
283.231
289.728
289.258
288.793
288.328
287.864
287.401
286.937
286.474
286.01
285.547
285.084
284.621
284.158
283.695
283.232
289.753
289.285
288.817
288.351
287.884
287.418
286.953
286.487
286.022
285.557
285.092
284.627
284.162
283.697
283.232
289.79
289.313
288.842
288.372
287.904
287.436
286.968
286.501
286.034
285.567
285.1
284.633
284.167
283.7
283.233
289.811
289.337
288.865
288.393
287.923
287.453
286.984
286.515
286.046
285.577
285.108
284.64
284.171
283.703
283.234
289.841
289.361
288.886
288.414
287.942
287.47
286.999
286.528
286.057
285.587
285.116
284.646
284.176
283.705
283.235
289.855
289.381
288.907
288.433
287.96
287.487
287.014
286.541
286.069
285.596
285.124
284.652
284.18
283.708
283.236
289.869
289.401
288.927
288.453
287.978
287.503
287.029
286.554
286.08
285.606
285.132
284.658
284.184
283.711
283.237
289.9
289.424
288.948
288.472
287.996
287.519
287.043
286.567
286.091
285.616
285.14
284.664
284.189
283.713
283.238
289.921
289.447
288.97
288.492
288.014
287.536
287.058
286.58
286.103
285.625
285.148
284.67
284.193
283.716
283.239
289.958
289.473
288.991