/*--------------------------------*- C++ -*----------------------------------*\
| =========                 |                                                 |
| \\      /  F ield         | OpenFOAM: The Open Source CFD Toolbox           |
|  \\    /   O peration     | Version:  5.x                                   |
|   \\  /    A nd           | Web:      www.OpenFOAM.org                      |
|    \\/     M anipulation  |                                                 |
\*---------------------------------------------------------------------------*/
FoamFile
{
    version     2.0;
    format      ascii;
    class       volScalarField;
    location    "1";
    object      gradTy;
}
// * * * * * * * * * * * * * * * * * * * * * * * * * * * * * * * * * * * * * //

dimensions      [0 -1 0 1 0 0 0];

internalField   nonuniform List<scalar> 
2048
(
-24.2144
-24.1803
-24.1135
-24.0166
-23.8933
-23.7479
-23.585
-23.4093
-23.2253
-23.0369
-22.8475
-22.6603
-22.4775
-22.3011
-22.1324
-21.9725
-21.8221
-21.6815
-21.5508
-21.4302
-21.3195
-21.2185
-21.1271
-21.0451
-20.9724
-20.9086
-20.8537
-20.8076
-20.7701
-20.7413
-20.7211
-20.7096
-20.7069
-20.7132
-20.7286
-20.7535
-20.7883
-20.8332
-20.8888
-20.9556
-21.0342
-21.1251
-21.2289
-21.3462
-21.4774
-21.6231
-21.7835
-21.9588
-22.1487
-22.3529
-22.5703
-22.7997
-23.0389
-23.2853
-23.5354
-23.785
-24.0293
-24.2625
-24.4786
-24.6714
-24.8347
-24.9629
-25.0511
-25.0962
-24.2414
-24.2062
-24.1372
-24.0373
-23.9105
-23.7614
-23.5948
-23.4155
-23.2282
-23.0369
-22.8452
-22.656
-22.4717
-22.2941
-22.1246
-21.9642
-21.8134
-21.6726
-21.542
-21.4214
-21.3107
-21.2099
-21.1187
-21.0368
-20.9642
-20.9006
-20.8458
-20.7997
-20.7623
-20.7334
-20.7132
-20.7016
-20.6987
-20.7048
-20.72
-20.7447
-20.7791
-20.8236
-20.8789
-20.9452
-21.0233
-21.1137
-21.2171
-21.334
-21.4649
-21.6103
-21.7707
-21.946
-22.1364
-22.3413
-22.5599
-22.7909
-23.0323
-23.2815
-23.5351
-23.7887
-24.0375
-24.2756
-24.4968
-24.6946
-24.8625
-24.9945
-25.0855
-25.1319
-24.2934
-24.2559
-24.1827
-24.0771
-23.9434
-23.787
-23.6131
-23.4269
-23.2334
-23.0367
-22.8404
-22.6475
-22.4603
-22.2806
-22.1096
-21.9482
-21.7968
-21.6558
-21.5251
-21.4046
-21.2942
-21.1937
-21.1027
-21.0212
-20.9488
-20.8853
-20.8307
-20.7848
-20.7474
-20.7185
-20.6982
-20.6864
-20.6833
-20.6891
-20.7038
-20.728
-20.7617
-20.8056
-20.86
-20.9255
-21.0028
-21.0923
-21.1948
-21.3108
-21.4411
-21.5861
-21.7462
-21.9218
-22.1128
-22.3191
-22.5398
-22.7739
-23.0195
-23.274
-23.534
-23.7953
-24.0527
-24.3003
-24.5314
-24.7389
-24.9157
-25.0551
-25.1515
-25.2007
-24.3686
-24.3277
-24.2482
-24.1339
-23.9902
-23.823
-23.6385
-23.4425
-23.2401
-23.0357
-22.833
-22.6349
-22.4437
-22.261
-22.088
-21.9252
-21.7732
-21.6319
-21.5012
-21.381
-21.2709
-21.1708
-21.0802
-20.9991
-20.927
-20.864
-20.8096
-20.7638
-20.7265
-20.6976
-20.6771
-20.6651
-20.6617
-20.6669
-20.6811
-20.7045
-20.7374
-20.7802
-20.8335
-20.8979
-20.9738
-21.062
-21.1632
-21.2781
-21.4074
-21.5516
-21.7114
-21.8872
-22.0791
-22.2871
-22.5108
-22.7491
-23.0004
-23.2623
-23.5315
-23.8037
-24.0735
-24.3348
-24.5802
-24.8019
-24.9918
-25.1422
-25.2466
-25.3
-24.4658
-24.4204
-24.3323
-24.2064
-24.0492
-23.868
-23.6697
-23.4609
-23.2472
-23.0332
-22.8225
-22.618
-22.4219
-22.2357
-22.0602
-21.896
-21.7432
-21.6017
-21.4712
-21.3513
-21.2417
-21.1421
-21.0521
-20.9715
-20.9
-20.8373
-20.7832
-20.7377
-20.7005
-20.6716
-20.651
-20.6386
-20.6348
-20.6394
-20.6528
-20.6753
-20.7071
-20.7487
-20.8005
-20.8633
-20.9376
-21.0241
-21.1237
-21.2371
-21.365
-21.5082
-21.6674
-21.8432
-22.036
-22.246
-22.4731
-22.7166
-22.9749
-23.246
-23.5267
-23.8126
-24.0984
-24.3773
-24.6414
-24.8817
-25.089
-25.2542
-25.3692
-25.4283
-24.5846
-24.5333
-24.4341
-24.2934
-24.1193
-23.9204
-23.7052
-23.481
-23.2537
-23.0283
-22.8084
-22.5966
-22.3949
-22.2047
-22.0266
-21.8609
-21.7074
-21.5659
-21.4357
-21.3164
-21.2075
-21.1085
-21.0192
-20.9392
-20.8683
-20.8061
-20.7525
-20.7072
-20.6702
-20.6412
-20.6204
-20.6078
-20.6034
-20.6074
-20.6199
-20.6413
-20.6718
-20.7119
-20.762
-20.8229
-20.8952
-20.9797
-21.0773
-21.1888
-21.315
-21.4568
-21.6151
-21.7906
-21.9842
-22.1963
-22.4271
-22.6762
-22.9427
-23.2244
-23.5185
-23.8207
-24.1256
-24.426
-24.7131
-24.9768
-25.206
-25.3897
-25.5183
-25.5846
-24.725
-24.6662
-24.5531
-24.3939
-24.1989
-23.9789
-23.7436
-23.5013
-23.2587
-23.0204
-22.7901
-22.5703
-22.3626
-22.1681
-21.9874
-21.8203
-21.6664
-21.5251
-21.3955
-21.277
-21.1689
-21.0708
-20.9823
-20.903
-20.8328
-20.7713
-20.7181
-20.6732
-20.6363
-20.6073
-20.5863
-20.5733
-20.5683
-20.5716
-20.5831
-20.6033
-20.6323
-20.6707
-20.7189
-20.7776
-20.8476
-20.9298
-21.025
-21.1342
-21.2583
-21.3984
-21.5554
-21.7303
-21.9243
-22.1383
-22.3729
-22.6281
-22.9032
-23.1967
-23.5059
-23.8267
-24.1537
-24.4792
-24.7937
-25.0855
-25.3414
-25.548
-25.6935
-25.7686
-24.8872
-24.8191
-24.6888
-24.507
-24.2869
-24.0418
-23.7832
-23.5207
-23.2609
-23.0087
-22.7672
-22.5388
-22.3248
-22.1262
-21.9429
-21.7747
-21.6207
-21.4799
-21.3512
-21.2337
-21.1266
-21.0295
-20.9419
-20.8636
-20.7941
-20.7333
-20.6807
-20.6361
-20.5994
-20.5705
-20.5493
-20.5358
-20.5303
-20.5327
-20.5432
-20.5621
-20.5895
-20.626
-20.672
-20.7283
-20.7957
-20.8751
-20.9676
-21.0742
-21.1959
-21.3338
-21.489
-21.6629
-21.8569
-22.0724
-22.3105
-22.5719
-22.8562
-23.1623
-23.4878
-23.8291
-24.1808
-24.535
-24.8814
-25.2064
-25.4943
-25.7286
-25.8945
-25.9806
-25.0722
-24.9924
-24.8409
-24.6318
-24.3819
-24.1076
-23.8227
-23.5376
-23.2594
-22.9923
-22.7392
-22.5019
-22.2816
-22.0788
-21.8933
-21.7244
-21.5707
-21.4309
-21.3035
-21.1872
-21.0814
-20.9853
-20.8988
-20.8214
-20.7529
-20.6928
-20.6409
-20.5968
-20.5603
-20.5313
-20.5099
-20.496
-20.4898
-20.4914
-20.5009
-20.5184
-20.5441
-20.5785
-20.6221
-20.6757
-20.7401
-20.8165
-20.906
-21.0097
-21.1286
-21.2639
-21.4169
-21.5891
-21.7825
-21.999
-22.2403
-22.5076
-22.8012
-23.1203
-23.4632
-23.8264
-24.2052
-24.5916
-24.9744
-25.3381
-25.6638
-25.9313
-26.1218
-26.2209
-25.281
-25.1869
-25.0095
-24.7673
-24.4822
-24.1745
-23.8602
-23.5508
-23.2531
-22.9707
-22.7057
-22.4595
-22.2329
-22.0262
-21.8388
-21.6697
-21.517
-21.3786
-21.2529
-21.1382
-21.0337
-20.9388
-20.8533
-20.777
-20.7095
-20.6504
-20.5992
-20.5556
-20.5193
-20.4903
-20.4686
-20.4543
-20.4476
-20.4483
-20.4566
-20.4727
-20.4966
-20.5288
-20.5698
-20.6204
-20.6817
-20.7548
-20.8409
-20.9413
-21.0571
-21.1894
-21.3396
-21.5095
-21.7015
-21.9182
-22.1621
-22.435
-22.7378
-23.0703
-23.431
-23.8173
-24.2251
-24.6469
-25.0708
-25.479
-25.8491
-26.1558
-26.3756
-26.4904
-25.5151
-25.4033
-25.1942
-24.9126
-24.5864
-24.2406
-23.8941
-23.5589
-23.2411
-22.9433
-22.6665
-22.4114
-22.1786
-21.9683
-21.7796
-21.6109
-21.4598
-21.3236
-21.2
-21.0872
-20.9841
-20.8905
-20.8061
-20.7309
-20.6645
-20.6064
-20.5561
-20.513
-20.477
-20.4479
-20.426
-20.4113
-20.4039
-20.4038
-20.411
-20.4257
-20.4478
-20.4776
-20.5159
-20.5633
-20.621
-20.6904
-20.7729
-20.8698
-20.9821
-21.1111
-21.258
-21.4249
-21.6146
-21.8306
-22.0763
-22.3543
-22.666
-23.0117
-23.3904
-23.8004
-24.2387
-24.6988
-25.1685
-25.6277
-26.0494
-26.4024
-26.6569
-26.7901
-25.7766
-25.6429
-25.3952
-25.0663
-24.6924
-24.304
-23.9225
-23.5605
-23.2227
-22.9098
-22.6213
-22.3575
-22.1188
-21.9053
-21.716
-21.5485
-21.3998
-21.2665
-21.1454
-21.0347
-20.9332
-20.8407
-20.7574
-20.6834
-20.6183
-20.5614
-20.512
-20.4695
-20.4337
-20.4046
-20.3824
-20.3672
-20.3592
-20.3583
-20.3645
-20.3777
-20.398
-20.4255
-20.4607
-20.5047
-20.5586
-20.6241
-20.7027
-20.7958
-20.9045
-21.0297
-21.1728
-21.3358
-21.5222
-21.7365
-21.983
-22.2653
-22.5855
-22.9442
-23.3408
-23.7745
-24.244
-24.7449
-25.2652
-25.7824
-26.2639
-26.6712
-26.9666
-27.1216
-26.0675
-25.9071
-25.6123
-25.2271
-24.7981
-24.3622
-23.9435
-23.5543
-23.1971
-22.8699
-22.5703
-22.2979
-22.0536
-21.8374
-21.648
-21.4827
-21.3374
-21.2077
-21.0897
-20.9813
-20.8814
-20.79
-20.7077
-20.6349
-20.5712
-20.5157
-20.4673
-20.4255
-20.3899
-20.3607
-20.3382
-20.3225
-20.3139
-20.3123
-20.3175
-20.3294
-20.3477
-20.3728
-20.405
-20.4452
-20.495
-20.5562
-20.6307
-20.7198
-20.8247
-20.9461
-21.0849
-21.2431
-21.425
-21.6362
-21.8824
-22.1682
-22.4963
-22.8676
-23.2816
-23.7384
-24.2392
-24.7828
-25.3585
-25.9411
-26.4917
-26.9625
-27.3058
-27.4861
-26.3909
-26.1974
-25.8453
-25.3932
-24.9011
-24.4129
-23.9552
-23.5391
-23.1641
-22.8239
-22.5136
-22.2328
-21.9831
-21.7647
-21.576
-21.4139
-21.2731
-21.1479
-21.0335
-20.9275
-20.8292
-20.7387
-20.6572
-20.5857
-20.5236
-20.4697
-20.4225
-20.3813
-20.346
-20.3166
-20.2936
-20.2775
-20.2683
-20.2661
-20.2704
-20.2809
-20.2975
-20.3201
-20.349
-20.3853
-20.4306
-20.4872
-20.5573
-20.6424
-20.7435
-20.8609
-20.995
-21.1474
-21.3233
-21.53
-21.7748
-22.0632
-22.3985
-22.7821
-23.2127
-23.6912
-24.2224
-24.8099
-25.4456
-26.1018
-26.7319
-27.277
-27.676
-27.8855
-26.7498
-26.5158
-26.0938
-25.5622
-24.9984
-24.4535
-23.9554
-23.5139
-23.1232
-22.7719
-22.4515
-22.1623
-21.9074
-21.6872
-21.5001
-21.3423
-21.2073
-21.0876
-20.9773
-20.8739
-20.7769
-20.687
-20.6061
-20.5358
-20.4757
-20.4236
-20.3778
-20.3373
-20.3021
-20.2724
-20.2489
-20.2323
-20.2227
-20.2198
-20.2234
-20.2328
-20.2476
-20.2677
-20.2934
-20.3254
-20.3658
-20.4175
-20.4831
-20.564
-20.6613
-20.7749
-20.904
-21.0496
-21.218
-21.4184
-21.6604
-21.9504
-22.2924
-22.6879
-23.1343
-23.6322
-24.1917
-24.8232
-25.5235
-26.2621
-26.9835
-27.6153
-28.0787
-28.3212
-27.148
-26.8646
-26.3571
-25.7313
-25.087
-24.4811
-23.9422
-23.4777
-23.0748
-22.7146
-22.3846
-22.0866
-21.8266
-21.6051
-21.4203
-21.2683
-21.1406
-21.0275
-20.9217
-20.8209
-20.7251
-20.6351
-20.5544
-20.4856
-20.4277
-20.3779
-20.3335
-20.2937
-20.2586
-20.2285
-20.2043
-20.1871
-20.1771
-20.1739
-20.1768
-20.1852
-20.1984
-20.2161
-20.2384
-20.2658
-20.301
-20.3473
-20.4082
-20.485
-20.5786
-20.6887
-20.8128
-20.9505
-21.1094
-21.3017
-21.5395
-21.83
-22.178
-22.5856
-23.0469
-23.5611
-24.1452
-24.8196
-25.589
-26.4193
-27.2451
-27.9783
-28.5159
-28.795
-27.5898
-27.2464
-26.6343
-25.8971
-25.1634
-24.493
-23.9134
-23.4297
-23.019
-22.6532
-22.3136
-22.0058
-21.7409
-21.5185
-21.3368
-21.1922
-21.0735
-20.9683
-20.8673
-20.7689
-20.674
-20.5834
-20.5023
-20.435
-20.3799
-20.3328
-20.2899
-20.2508
-20.2157
-20.185
-20.16
-20.1422
-20.1319
-20.1284
-20.1309
-20.1384
-20.1501
-20.1656
-20.1844
-20.207
-20.2363
-20.2769
-20.3329
-20.4055
-20.4957
-20.6031
-20.7224
-20.8508
-20.9982
-21.18
-21.4123
-21.7023
-22.0556
-22.476
-22.9517
-23.4779
-24.0811
-24.7957
-25.6383
-26.5707
-27.5152
-28.3676
-28.9895
-29.3083
-28.0799
-27.6643
-26.9241
-26.055
-25.2239
-24.4865
-23.8669
-23.3692
-22.9568
-22.5892
-22.2393
-21.9199
-21.6504
-21.4275
-21.2494
-21.114
-21.0064
-20.9107
-20.8145
-20.7183
-20.6242
-20.5319
-20.4495
-20.3841
-20.3324
-20.2886
-20.2473
-20.2087
-20.1737
-20.142
-20.1159
-20.0977
-20.0871
-20.0835
-20.0858
-20.0927
-20.103
-20.1164
-20.1319
-20.1492
-20.1721
-20.2063
-20.2574
-20.3259
-20.4128
-20.5188
-20.6339
-20.7517
-20.8848
-21.0536
-21.2791
-21.5675
-21.9252
-22.3602
-22.8505
-23.383
-23.9977
-24.7475
-25.6678
-26.7129
-27.7916
-28.7853
-29.5022
-29.8619
-28.6233
-28.1225
-27.2244
-26.1992
-25.2649
-24.459
-23.8003
-23.2959
-22.889
-22.5246
-22.1626
-21.8287
-21.5554
-21.3323
-21.158
-21.0342
-20.94
-20.8555
-20.7639
-20.6694
-20.576
-20.4807
-20.3959
-20.3327
-20.2854
-20.2457
-20.206
-20.1677
-20.1328
-20.0998
-20.0722
-20.0535
-20.0429
-20.0393
-20.0417
-20.0482
-20.0572
-20.0688
-20.0812
-20.0927
-20.1085
-20.1356
-20.1818
-20.2464
-20.33
-20.4362
-20.5487
-20.6539
-20.7698
-20.9223
-21.1403
-21.4259
-21.7864
-22.2393
-22.746
-23.2772
-23.8934
-24.6707
-25.6735
-26.8429
-28.0713
-29.2345
-30.0568
-30.4562
-29.2255
-28.6261
-27.5325
-26.3222
-25.2829
-24.4083
-23.7112
-23.2097
-22.817
-22.4622
-22.0844
-21.7313
-21.456
-21.2331
-21.0622
-20.9528
-20.8748
-20.8037
-20.7159
-20.6224
-20.5302
-20.4299
-20.3409
-20.2808
-20.2391
-20.2046
-20.166
-20.1278
-20.0931
-20.0583
-20.0288
-20.0097
-19.9992
-19.996
-19.9987
-20.0051
-20.0127
-20.023
-20.0327
-20.0378
-20.0456
-20.0647
-20.1064
-20.1669
-20.2468
-20.3561
-20.4682
-20.5584
-20.6535
-20.7858
-20.9962
-21.278
-21.6383
-22.1146
-22.6417
-23.162
-23.7671
-24.56
-25.6515
-26.9575
-28.3496
-29.7201
-30.6568
-31.0903
-29.8916
-29.1821
-27.8447
-26.4143
-25.2751
-24.3329
-23.5965
-23.1106
-22.7424
-22.4058
-22.0059
-21.6264
-21.353
-21.1302
-20.9611
-20.8701
-20.8112
-20.7565
-20.6707
-20.577
-20.4873
-20.3794
-20.2837
-20.2283
-20.1935
-20.1657
-20.1276
-20.0889
-20.055
-20.0176
-19.9855
-19.9663
-19.9562
-19.9534
-19.9568
-19.9635
-19.9696
-19.9791
-19.9869
-19.9847
-19.9835
-19.9933
-20.0312
-20.0879
-20.1628
-20.2789
-20.3943
-20.4662
-20.5366
-20.6433
-20.8474
-21.1246
-21.479
-21.9876
-22.5427
-23.0387
-23.6179
-24.4091
-25.598
-27.054
-28.6191
-30.2497
-31.3063
-31.7622
-30.6263
-29.8001
-28.1562
-26.4624
-25.2404
-24.2324
-23.4521
-22.9996
-22.6664
-22.3604
-21.9277
-21.5114
-21.2473
-21.0243
-20.8535
-20.7864
-20.7497
-20.7155
-20.6284
-20.5329
-20.4486
-20.3293
-20.2234
-20.175
-20.1488
-20.1296
-20.0907
-20.0509
-20.0189
-19.9778
-19.9422
-19.9234
-19.9139
-19.9116
-19.916
-19.9236
-19.9278
-19.9372
-19.9442
-19.9335
-19.9225
-19.9209
-19.9566
-20.0095
-20.0765
-20.205
-20.3293
-20.378
-20.4196
-20.4935
-20.6948
-20.967
-21.3053
-21.8595
-22.4559
-22.9093
-23.4458
-24.2099
-25.5099
-27.1312
-28.868
-30.835
-32.0102
-32.4677
-31.4331
-30.494
-28.4604
-26.4492
-25.1801
-24.1074
-23.2727
-22.8781
-22.5902
-22.3327
-21.8508
-21.3821
-21.1408
-20.9162
-20.7375
-20.7024
-20.6903
-20.6828
-20.5887
-20.4893
-20.4158
-20.2795
-20.1583
-20.121
-20.105
-20.0974
-20.0554
-20.0134
-19.9852
-19.9389
-19.8984
-19.881
-19.8723
-19.8706
-19.8765
-19.8857
-19.8869
-19.8972
-19.9053
-19.8845
-19.8628
-19.8468
-19.8828
-19.9327
-19.9861
-20.1346
-20.2765
-20.2944
-20.3035
-20.334
-20.5397
-20.8078
-21.112
-21.7315
-22.3906
-22.7748
-23.2522
-23.952
-25.385
-27.1902
-29.0773
-31.4941
-32.7738
-33.2001
-32.313
-31.2833
-28.7489
-26.3515
-25.0995
-23.9602
-23.0505
-22.7495
-22.5137
-22.3318
-21.7755
-21.2322
-21.0369
-20.8074
-20.6098
-20.6192
-20.6329
-20.6612
-20.5513
-20.4443
-20.3915
-20.23
-20.0862
-20.0667
-20.0619
-20.0704
-20.0214
-19.9758
-19.9549
-19.9008
-19.8537
-19.8392
-19.8315
-19.8303
-19.838
-19.8501
-19.8466
-19.859
-19.8713
-19.8374
-19.8047
-19.7697
-19.8103
-19.8585
-19.8886
-20.0678
-20.24
-20.2152
-20.1897
-20.1612
-20.384
-20.651
-20.8907
-21.6043
-22.3594
-22.6352
-23.0413
-23.621
-25.2225
-27.2369
-29.2172
-32.2547
-33.6022
-33.95
-33.2631
-32.1961
-29.0106
-26.1379
-25.01
-23.795
-22.7739
-22.6193
-22.4348
-22.3699
-21.7021
-21.0523
-20.9408
-20.6997
-20.4659
-20.5389
-20.5763
-20.6549
-20.5151
-20.3955
-20.3794
-20.1805
-20.004
-20.013
-20.0192
-20.0504
-19.9883
-19.937
-19.9292
-19.8634
-19.8073
-19.7984
-19.7917
-19.7906
-19.8006
-19.8175
-19.8061
-19.8223
-19.8434
-19.7921
-19.7492
-19.688
-19.7401
-19.7892
-19.7795
-20.0046
-20.2256
-20.1394
-20.0809
-19.9694
-20.2302
-20.5036
-20.6293
-21.4782
-22.3795
-22.488
-22.8208
-23.197
-25.0234
-27.2847
-29.2404
-33.1593
-34.4998
-34.7041
-34.275
-33.2724
-29.231
-25.7663
-24.9323
-23.6181
-22.4262
-22.4974
-22.3479
-22.4641
-21.63
-20.8286
-20.861
-20.5959
-20.2987
-20.4654
-20.5181
-20.6698
-20.4785
-20.3389
-20.3853
-20.131
-19.9075
-19.9618
-19.9758
-20.0401
-19.9556
-19.8956
-19.9101
-19.8265
-19.7583
-19.7589
-19.7529
-19.7514
-19.7641
-19.7888
-19.7647
-19.7865
-19.8235
-19.7479
-19.6978
-19.5987
-19.6731
-19.7284
-19.6525
-19.9443
-20.2411
-20.0643
-19.9817
-19.7501
-20.0817
-20.3764
-20.3099
-21.3524
-22.4745
-22.3257
-22.6053
-22.6522
-24.7909
-27.3591
-29.0751
-34.2714
-35.4678
-35.4454
-35.3316
-34.5683
-29.3914
-25.1801
-24.8995
-23.4378
-21.9827
-22.3998
-22.2417
-22.6373
-21.5582
-20.5416
-20.8106
-20.4993
-20.0981
-20.4049
-20.4539
-20.7139
-20.4389
-20.2684
-20.4171
-20.0809
-19.7908
-19.9163
-19.9298
-20.0432
-19.9221
-19.8495
-19.9003
-19.7899
-19.7053
-19.7218
-19.7153
-19.7127
-19.728
-19.7657
-19.721
-19.751
-19.8144
-19.7033
-19.6528
-19.4982
-19.6105
-19.6816
-19.4988
-19.8863
-20.2974
-19.9842
-19.8998
-19.491
-19.9428
-20.2862
-19.9071
-21.2251
-22.6767
-22.1332
-22.419
-21.9476
-24.5305
-27.5042
-28.6128
-35.6855
-36.5013
-36.1529
-36.4044
-36.1618
-29.4676
-24.3042
-24.9621
-23.2647
-21.4086
-22.3521
-22.096
-22.9213
-21.4846
-20.164
-20.8088
-20.4141
-19.8496
-20.3676
-20.3756
-20.7991
-20.3927
-20.1755
-20.4865
-20.0293
-19.6459
-19.8816
-19.878
-20.065
-19.8862
-19.7955
-19.9038
-19.7529
-19.6466
-19.688
-19.679
-19.6742
-19.6917
-19.7502
-19.6732
-19.7144
-19.8196
-19.6559
-19.6181
-19.3806
-19.5541
-19.6571
-19.3062
-19.8289
-20.4093
-19.8895
-19.8472
-19.1743
-19.8186
-20.2577
-19.386
-21.0928
-23.03
-21.8828
-22.301
-21.0287
-24.2497
-27.7916
-27.6936
-37.5391
-37.5842
-36.802
-37.4495
-38.1589
-29.4283
-23.0395
-25.1939
-23.1106
-20.6542
-22.3941
-21.8778
-23.3587
-21.4057
-19.6589
-20.8831
-20.3451
-19.5326
-20.3692
-20.2705
-20.9414
-20.3348
-20.048
-20.6091
-19.9746
-19.4619
-19.866
-19.8145
-20.1128
-19.8455
-19.7293
-19.9263
-19.7142
-19.5796
-19.6595
-19.6441
-19.6359
-19.6541
-19.7453
-19.6189
-19.6748
-19.8443
-19.6014
-19.5995
-19.2381
-19.5053
-19.667
-19.0579
-19.7699
-20.5971
-19.7641
-19.8431
-18.7749
-19.7148
-20.3262
-18.6986
-20.9494
-23.594
-21.5293
-22.3113
-19.8203
-23.9574
-28.332
-26.0869
-40.0299
-38.6819
-37.3656
-38.4029
-40.7021
-29.2337
-21.2568
-25.6988
-22.9881
-19.6513
-22.5849
-21.5357
-24.0071
-21.3165
-18.9765
-21.072
-20.2974
-19.1188
-20.4332
-20.1185
-21.163
-20.2579
-19.8693
-20.8064
-19.9141
-19.2244
-19.8813
-19.7303
-20.1962
-19.7964
-19.645
-19.9751
-19.672
-19.5011
-19.6385
-19.6102
-19.5973
-19.6132
-19.7551
-19.5547
-19.6292
-19.8956
-19.5331
-19.6057
-19.0596
-19.4656
-19.7279
-18.7319
-19.7057
-20.8879
-19.5833
-19.9157
-18.2582
-19.6376
-20.5415
-17.781
-20.7859
-24.449
-21.0009
-22.5396
-18.2201
-23.6617
-29.2912
-23.4664
-43.4365
-39.7312
-37.8163
-39.1749
-43.9789
-28.8332
-18.7896
-26.6192
-22.9092
-18.3073
-23.0106
-20.9931
-24.9436
-21.2094
-18.0516
-21.428
-20.2763
-18.5699
-20.5937
-19.8898
-21.4942
-20.1524
-19.6168
-21.1069
-19.8434
-18.9143
-19.9451
-19.6117
-20.3287
-19.7338
-19.5344
-20.0602
-19.6232
-19.4067
-19.6281
-19.5763
-19.5582
-19.5659
-19.7851
-19.476
-19.5735
-19.9827
-19.4408
-19.6491
-18.8301
-19.4361
-19.8628
-18.2988
-19.6311
-21.3181
-19.3099
-20.1065
-17.5775
-19.5925
-20.9714
-16.5495
-20.5889
-25.7024
-20.1904
-23.1157
-16.0906
-23.3669
-30.9088
-19.3799
-48.1452
-40.6268
-38.1295
-39.6453
-48.2323
-28.1638
-15.4268
-28.1458
-22.8837
-16.5001
-23.7938
-20.1402
-26.2702
-21.0747
-16.8005
-22.0223
-20.2873
-17.8357
-20.8998
-19.5418
-21.976
-20.0063
-19.2616
-21.5487
-19.757
-18.5077
-20.0823
-19.4395
-20.529
-19.6517
-19.388
-20.1955
-19.564
-19.2917
-19.6334
-19.542
-19.5193
-19.5088
-19.8432
-19.3779
-19.5027
-20.1193
-19.3105
-19.748
-18.5306
-19.418
-20.1032
-17.7221
-19.54
-21.9368
-18.8916
-20.475
-16.6716
-19.5852
-21.7075
-14.897
-20.3403
-27.497
-18.9432
-24.2234
-13.2516
-23.0702
-33.5232
-13.2139
-54.6821
-41.2043
-38.2884
)
;

boundaryField
{
    left
    {
        type            calculated;
        value           nonuniform List<scalar> 
32
(
-24.2144
-24.2414
-24.2934
-24.3686
-24.4658
-24.5846
-24.725
-24.8872
-25.0722
-25.281
-25.5151
-25.7766
-26.0675
-26.3909
-26.7498
-27.148
-27.5898
-28.0799
-28.6233
-29.2255
-29.8916
-30.6263
-31.4331
-32.313
-33.2631
-34.275
-35.3316
-36.4044
-37.4495
-38.4029
-39.1749
-39.6453
)
;
    }
    right
    {
        type            calculated;
        value           nonuniform List<scalar> 
32
(
-25.0962
-25.1319
-25.2007
-25.3
-25.4283
-25.5846
-25.7686
-25.9806
-26.2209
-26.4904
-26.7901
-27.1216
-27.4861
-27.8855
-28.3212
-28.795
-29.3083
-29.8619
-30.4562
-31.0903
-31.7622
-32.4677
-33.2001
-33.95
-34.7041
-35.4454
-36.1529
-36.802
-37.3656
-37.8163
-38.1295
-38.2884
)
;
    }
    interface
    {
        type            calculated;
        value           nonuniform List<scalar> 
64
(
-39.7878
-50.6374
-27.7532
-13.4922
-29.0878
-22.8855
-15.4634
-24.2927
-19.6202
-27.0456
-20.9991
-16.0817
-22.3891
-20.3015
-17.4152
-21.0964
-19.3319
-22.2606
-19.9214
-19.0545
-21.8103
-19.7092
-18.277
-20.173
-19.3373
-20.6488
-19.6051
-19.3045
-20.2778
-19.5315
-19.2286
-19.6408
-19.5248
-19.5002
-19.4774
-19.8807
-19.3234
-19.4629
-20.202
-19.2339
-19.8142
-18.3608
-19.4119
-20.2545
-17.3928
-19.4894
-22.3003
-18.6385
-20.7125
-16.1538
-19.5917
-22.1652
-13.9505
-20.2006
-28.55
-18.1878
-24.937
-11.6293
-22.9204
-35.1288
-9.52303
-58.4834
-41.3887
-38.3279
)
;
    }
    bottom
    {
        type            calculated;
        value           nonuniform List<scalar> 
64
(
-24.2074
-24.1736
-24.1073
-24.0112
-23.8888
-23.7443
-23.5824
-23.4077
-23.2245
-23.0368
-22.8481
-22.6614
-22.479
-22.3029
-22.1344
-21.9747
-21.8244
-21.6838
-21.5531
-21.4325
-21.3217
-21.2207
-21.1293
-21.0473
-20.9745
-20.9107
-20.8558
-20.8097
-20.7722
-20.7434
-20.7232
-20.7117
-20.709
-20.7153
-20.7309
-20.7558
-20.7907
-20.8357
-20.8914
-20.9584
-21.037
-21.128
-21.232
-21.3493
-21.4807
-21.6264
-21.7869
-21.9621
-22.1519
-22.3559
-22.573
-22.8019
-23.0406
-23.2862
-23.5355
-23.7841
-24.0271
-24.259
-24.4739
-24.6654
-24.8275
-24.9547
-25.0422
-25.0869
)
;
    }
    defaultFaces
    {
        type            empty;
    }
}


// ************************************************************************* //
