/*--------------------------------*- C++ -*----------------------------------*\
| =========                 |                                                 |
| \\      /  F ield         | OpenFOAM: The Open Source CFD Toolbox           |
|  \\    /   O peration     | Version:  5.x                                   |
|   \\  /    A nd           | Web:      www.OpenFOAM.org                      |
|    \\/     M anipulation  |                                                 |
\*---------------------------------------------------------------------------*/
FoamFile
{
    version     2.0;
    format      ascii;
    class       volScalarField;
    location    "1";
    object      gradTx;
}
// * * * * * * * * * * * * * * * * * * * * * * * * * * * * * * * * * * * * * //

dimensions      [0 -1 0 1 0 0 0];

internalField   nonuniform List<scalar> 
2048
(
0.00777615
0.0230177
0.0373427
0.0502414
0.0613442
0.0704191
0.0773846
0.0822876
0.0852688
0.0865312
0.086312
0.0848595
0.0824169
0.0792105
0.0754424
0.0712864
0.0668855
0.0623526
0.0577716
0.0532018
0.0486819
0.0442349
0.039872
0.0355959
0.0314032
0.0272852
0.0232297
0.0192209
0.0152401
0.0112668
0.00727883
0.00325254
-0.000836819
-0.00501516
-0.00930949
-0.0137476
-0.0183576
-0.0231664
-0.0281989
-0.0334758
-0.0390115
-0.0448125
-0.0508751
-0.0571829
-0.0637042
-0.0703884
-0.0771613
-0.0839202
-0.0905284
-0.0968108
-0.102551
-0.107493
-0.111341
-0.113773
-0.114446
-0.113025
-0.109196
-0.102712
-0.093418
-0.0812983
-0.0665028
-0.0493651
-0.0303981
-0.010266
0.0232491
0.0688019
0.111574
0.150021
0.183031
0.209925
0.230481
0.24486
0.253506
0.257042
0.256188
0.251694
0.244285
0.234639
0.223356
0.210951
0.197848
0.184377
0.170785
0.157244
0.143862
0.130706
0.117806
0.105167
0.0927788
0.0806151
0.0686386
0.0568022
0.0450506
0.0333226
0.021552
0.00966926
-0.00239899
-0.0147294
-0.0274021
-0.0404997
-0.054106
-0.0683023
-0.0831632
-0.0987513
-0.115112
-0.132265
-0.150201
-0.168875
-0.188197
-0.208019
-0.228127
-0.248221
-0.267902
-0.286654
-0.303837
-0.318689
-0.330334
-0.337803
-0.340075
-0.336128
-0.325018
-0.305973
-0.278512
-0.242558
-0.198541
-0.147452
-0.0908299
-0.0306804
0.0387719
0.114687
0.185831
0.249568
0.304032
0.348135
0.381569
0.404678
0.418269
0.423434
0.421409
0.413454
0.400787
0.384528
0.365668
0.345055
0.323379
0.301175
0.278836
0.25663
0.234726
0.213218
0.192147
0.17152
0.151313
0.131482
0.111966
0.0926851
0.0735479
0.054453
0.0352919
0.0159504
-0.0036911
-0.0237578
-0.0443811
-0.0656977
-0.0878467
-0.110965
-0.135178
-0.160594
-0.187291
-0.215308
-0.244636
-0.275206
-0.306879
-0.339428
-0.372515
-0.405666
-0.438239
-0.469399
-0.498102
-0.523095
-0.542928
-0.555987
-0.56056
-0.554913
-0.537421
-0.506729
-0.461949
-0.402876
-0.330166
-0.245442
-0.151291
-0.0511197
0.054761
0.161875
0.261962
0.351196
0.426926
0.487698
0.533215
0.564117
0.581681
0.587552
0.583533
0.57143
0.552959
0.529689
0.502998
0.474058
0.443812
0.412985
0.382096
0.351487
0.321366
0.291841
0.262953
0.2347
0.207045
0.179925
0.153252
0.126913
0.100782
0.0747158
0.0485645
0.0221713
-0.00462742
-0.0320031
-0.0601367
-0.0892186
-0.119444
-0.151009
-0.184093
-0.218856
-0.255412
-0.293827
-0.334096
-0.37614
-0.419784
-0.464738
-0.510568
-0.55665
-0.60213
-0.645879
-0.686467
-0.722162
-0.750938
-0.77053
-0.778501
-0.772352
-0.749694
-0.708475
-0.647275
-0.565637
-0.464358
-0.345679
-0.213282
-0.0721001
0.0715963
0.211453
0.341629
0.456945
0.553928
0.630829
0.687504
0.725054
0.745376
0.750784
0.743716
0.726561
0.70155
0.670701
0.635783
0.59828
0.559381
0.51998
0.480695
0.441919
0.40387
0.366651
0.330288
0.294764
0.260026
0.225989
0.192539
0.159532
0.126799
0.0941597
0.0614209
0.0283854
-0.00515132
-0.0394042
-0.074602
-0.110988
-0.148817
-0.188345
-0.229817
-0.273445
-0.319393
-0.367754
-0.418541
-0.47167
-0.526946
-0.584042
-0.642453
-0.701444
-0.759982
-0.816674
-0.869727
-0.916935
-0.9557
-0.983081
-0.995879
-0.990761
-0.96446
-0.914069
-0.837453
-0.733727
-0.603708
-0.450222
-0.278129
-0.0940805
0.0896482
0.264477
0.42641
0.568702
0.687017
0.779427
0.846143
0.888956
0.910581
0.914133
0.90277
0.879493
0.847061
0.807944
0.764297
0.717918
0.670228
0.622267
0.574726
0.528011
0.482321
0.437727
0.394225
0.351776
0.31031
0.269724
0.229876
0.190585
0.151644
0.112826
0.0738996
0.0346281
-0.00523049
-0.0459304
-0.0877455
-0.130972
-0.175926
-0.222932
-0.272304
-0.324319
-0.379196
-0.437065
-0.49796
-0.561804
-0.628398
-0.697399
-0.768269
-0.840204
-0.912036
-0.982145
-1.0484
-1.10812
-1.15814
-1.19482
-1.21416
-1.21192
-1.18381
-1.12588
-1.03503
-0.909703
-0.750562
-0.560968
-0.347069
-0.117491
0.109299
0.322018
0.517875
0.688283
0.828019
0.935148
1.01053
1.05694
1.07816
1.07827
1.06122
1.03063
0.989791
0.941629
0.888682
0.833063
0.776415
0.719901
0.664249
0.609836
0.556801
0.505153
0.454843
0.405807
0.357961
0.311184
0.26531
0.220118
0.175356
0.130751
0.0860294
0.0409196
-0.00485279
-0.0515761
-0.0995653
-0.149169
-0.200769
-0.254763
-0.311544
-0.371469
-0.434817
-0.501765
-0.572372
-0.64657
-0.724172
-0.804843
-0.888056
-0.97299
-1.05839
-1.14247
-1.22275
-1.29612
-1.35882
-1.40651
-1.43436
-1.43713
-1.40939
-1.34588
-1.24224
-1.0959
-0.907129
-0.67974
-0.421304
-0.14275
0.130958
0.385216
0.617653
0.817505
0.978658
1.09945
1.18178
1.22981
1.24868
1.24359
1.21933
1.18016
1.12987
1.07183
1.00897
0.943719
0.87794
0.812896
0.749303
0.687458
0.627394
0.569021
0.512231
0.456934
0.403041
0.350425
0.29889
0.248176
0.197976
0.147966
0.0978319
0.0472686
-0.00402269
-0.0563569
-0.110085
-0.165607
-0.223371
-0.28386
-0.347561
-0.414917
-0.486284
-0.561889
-0.641817
-0.726013
-0.814304
-0.906395
-1.00181
-1.09978
-1.19904
-1.29765
-1.39287
-1.48112
-1.55804
-1.6186
-1.65711
-1.6673
-1.64245
-1.57573
-1.46108
-1.29452
-1.07556
-0.808349
-0.50204
-0.170281
0.155082
0.455323
0.727488
0.958226
1.1406
1.27362
1.36075
1.40806
1.42239
1.41021
1.37717
1.32813
1.26731
1.19852
1.12511
1.04982
0.97475
0.901229
0.82991
0.760943
0.694193
0.629436
0.566488
0.505241
0.445619
0.387501
0.330667
0.274805
0.219544
0.164504
0.109324
0.0536747
-0.00275822
-0.0603061
-0.119349
-0.180334
-0.243784
-0.310274
-0.380397
-0.454705
-0.533644
-0.617495
-0.706363
-0.8002
-0.898849
-1.00207
-1.10951
-1.2205
-1.33388
-1.44761
-1.55869
-1.66309
-1.75585
-1.83122
-1.88269
-1.90297
-1.88389
-1.81677
-1.69336
-1.50767
-1.25799
-0.948643
-0.590524
-0.200523
0.182189
0.533742
0.849282
1.11239
1.31546
1.45876
1.54806
1.59192
1.59927
1.57803
1.53465
1.47443
1.40201
1.32161
1.23697
1.15125
1.06675
0.984858
0.906089
0.830364
0.757309
0.68652
0.617723
0.550813
0.485761
0.422467
0.36069
0.300051
0.240103
0.180394
0.120519
0.0601308
-0.00108839
-0.063472
-0.127418
-0.193422
-0.262079
-0.334071
-0.410116
-0.490897
-0.576966
-0.668664
-0.766105
-0.869227
-0.977882
-1.0919
-1.21109
-1.33503
-1.46272
-1.59213
-1.72001
-1.84186
-1.9521
-2.04427
-2.11109
-2.1443
-2.13427
-2.07009
-1.94072
-1.73741
-1.45663
-1.10254
-0.688054
-0.233934
0.212876
0.622075
0.985153
1.28206
1.50482
1.65582
1.74404
1.78128
1.77904
1.74675
1.69152
1.61891
1.53384
1.44092
1.3444
1.24784
1.15382
1.06372
0.977858
0.895806
0.81687
0.740411
0.666058
0.593743
0.52353
0.455376
0.389009
0.323965
0.259696
0.19567
0.131432
0.0666249
0.00094892
-0.0659149
-0.134372
-0.204957
-0.278345
-0.355336
-0.436796
-0.523566
-0.616331
-0.715494
-0.82116
-0.933221
-1.05151
-1.17593
-1.30652
-1.44321
-1.58533
-1.73095
-1.87656
-2.01716
-2.14651
-2.25743
-2.342
-2.39113
-2.39379
-2.33649
-2.20466
-1.98581
-1.67372
-1.27207
-0.796001
-0.270993
0.24784
0.72217
1.13748
1.46941
1.71021
1.86554
1.94874
1.97578
1.96117
1.9159
1.84746
1.76134
1.66261
1.5563
1.4472
1.3394
1.2358
1.13776
1.04525
0.957379
0.873033
0.791275
0.711629
0.634122
0.558986
0.486272
0.41567
0.346596
0.278374
0.21037
0.142076
0.0731423
0.00330876
-0.0677059
-0.140299
-0.215039
-0.292687
-0.374168
-0.460524
-0.552795
-0.65183
-0.758101
-0.871672
-0.992342
-1.11988
-1.25424
-1.39575
-1.54487
-1.70145
-1.86375
-2.02802
-2.18867
-2.33871
-2.47025
-2.57484
-2.64295
-2.66229
-2.61651
-2.48655
-2.25492
-1.91166
-1.45937
-0.915804
-0.312198
0.287892
0.836168
1.30894
1.6768
1.93311
2.08843
2.16191
2.1747
2.14487
2.08488
2.0021
1.90151
1.78814
1.66754
1.54515
1.42571
1.31252
1.20689
1.1083
1.01521
0.925983
0.839303
0.754585
0.672037
0.592176
0.515195
0.44072
0.367999
0.296191
0.224536
0.152469
0.0796659
0.0059405
-0.0689241
-0.145299
-0.223782
-0.305219
-0.390677
-0.481397
-0.57867
-0.683557
-0.796609
-0.917806
-1.04678
-1.18318
-1.32695
-1.47876
-1.63983
-1.81077
-1.99019
-2.17403
-2.35601
-2.52828
-2.68216
-2.80885
-2.89891
-2.93924
-2.91038
-2.78759
-2.54683
-2.17296
-1.66674
-1.04896
-0.358054
0.333982
0.966565
1.50258
1.9067
2.17486
2.32476
2.38298
2.37703
2.32912
2.25297
2.15508
2.03921
1.91028
1.77448
1.63803
1.50653
1.38381
1.27107
1.16708
1.06947
0.975937
0.884716
0.795086
0.70757
0.623134
0.542174
0.464208
0.388233
0.313207
0.238219
0.162632
0.086178
0.00878895
-0.0696555
-0.149482
-0.231307
-0.31607
-0.404984
-0.499515
-0.601273
-0.711607
-0.831153
-0.959747
-1.09678
-1.24166
-1.39424
-1.55556
-1.72788
-1.91296
-2.10989
-2.31424
-2.51883
-2.71482
-2.89255
-3.04305
-3.1578
-3.22372
-3.21803
-3.10889
-2.86367
-2.4603
-1.89661
-1.19701
-0.409056
0.387208
1.11626
1.72189
2.16173
2.43668
2.5745
2.61104
2.58143
2.51267
2.41938
2.30606
2.17432
2.02892
1.87696
1.72563
1.58159
1.44944
1.33021
1.22169
1.12035
1.02315
0.927769
0.833306
0.740787
0.65187
0.567229
0.48618
0.407362
0.32949
0.251476
0.17259
0.0926596
0.0117951
-0.0699914
-0.152961
-0.237745
-0.325377
-0.417219
-0.514982
-0.620685
-0.736064
-0.861868
-0.997698
-1.14259
-1.29562
-1.45637
-1.6262
-1.80883
-2.00766
-2.22249
-2.44831
-2.67681
-2.89799
-3.10085
-3.27631
-3.41805
-3.51434
-3.53903
-3.45139
-3.20762
-2.77657
-2.15159
-1.36146
-0.465646
0.448828
1.28862
1.97084
2.44464
2.71953
2.83731
2.84482
2.78619
2.69404
2.58331
2.45485
2.30681
2.14396
1.97487
1.80772
1.6506
1.50919
1.38429
1.27225
1.16807
1.06791
0.968761
0.86943
0.771733
0.678368
0.590366
0.506689
0.425453
0.345116
0.264379
0.182375
0.0990905
0.0148969
-0.0700268
-0.155857
-0.243228
-0.333284
-0.427526
-0.527905
-0.636974
-0.757004
-0.888888
-1.03187
-1.18449
-1.34543
-1.51367
-1.69077
-1.88244
-2.09449
-2.32762
-2.57594
-2.82966
-3.07753
-3.30657
-3.50741
-3.67774
-3.80925
-3.87261
-3.81588
-3.58085
-3.12493
-2.43451
-1.54373
-0.528167
0.52025
1.48756
2.25398
2.75822
3.02403
3.11251
3.08273
2.98931
2.87154
2.74396
2.60142
2.43675
2.25538
2.06812
1.8841
1.71323
1.56281
1.43326
1.31893
1.21287
1.11052
1.00803
0.903655
0.80042
0.702577
0.611584
0.525798
0.442582
0.360164
0.277008
0.192024
0.105448
0.0180295
-0.0698588
-0.15829
-0.24789
-0.339944
-0.436061
-0.538394
-0.650192
-0.774482
-0.912346
-1.06249
-1.22279
-1.39151
-1.56659
-1.74939
-1.94847
-2.173
-2.42491
-2.69687
-2.97714
-3.25335
-3.50944
-3.73505
-3.93452
-4.10605
-4.21764
-4.20304
-3.98559
-3.5088
-2.74841
-1.74505
-0.596781
0.602997
1.71754
2.57662
3.10526
3.35035
3.3991
3.32288
3.1884
3.04328
2.90058
2.74601
2.56437
2.36313
2.15669
1.95459
1.76913
1.60999
1.47712
1.36198
1.25502
1.15134
1.046
0.936189
0.826817
0.724399
0.630871
0.543587
0.458824
0.37472
0.289462
0.201579
0.111706
0.0211259
-0.0695852
-0.160384
-0.251864
-0.345512
-0.443
-0.546561
-0.660374
-0.788525
-0.932368
-1.08979
-1.25777
-1.43435
-1.61569
-1.80227
-2.00662
-2.24271
-2.51402
-2.81091
-3.11903
-3.42552
-3.70953
-3.95797
-4.18565
-4.40179
-4.57258
-4.61343
-4.42397
-3.93201
-3.09665
-1.96623
-0.671358
0.698629
1.98369
2.94492
3.48842
3.69795
3.69577
3.56312
3.38076
3.20711
3.05255
2.88922
2.68999
2.46716
2.24065
2.01903
1.81786
1.6504
1.51588
1.40171
1.29476
1.1907
1.08315
0.967251
0.850829
0.743686
0.648209
0.560163
0.474257
0.388866
0.301862
0.211089
0.117828
0.0241183
-0.0693026
-0.16226
-0.255272
-0.350145
-0.448542
-0.552526
-0.66753
-0.799131
-0.949078
-1.114
-1.2897
-1.47447
-1.66173
-1.84966
-2.05652
-2.30303
-2.59465
-2.91798
-3.25505
-3.59427
-3.90735
-4.17494
-4.42795
-4.69285
-4.93557
-5.04756
-4.89793
-4.39886
-3.48304
-2.2075
-0.751325
0.808585
2.29179
3.36622
3.91006
4.06542
4.00107
3.80112
3.56332
3.36066
3.19937
3.03215
2.81406
2.56729
2.32017
2.07731
1.85892
1.68363
1.54963
1.43854
1.33233
1.22895
1.12008
0.997071
0.872284
0.760224
0.663583
0.575682
0.488948
0.402679
0.314358
0.220608
0.123766
0.0269391
-0.0691039
-0.164042
-0.258223
-0.353995
-0.452924
-0.556415
-0.671639
-0.806253
-0.962598
-1.13538
-1.31875
-1.51246
-1.70567
-1.89187
-2.09771
-2.3533
-2.66656
-3.01813
-3.38481
-3.76001
-4.10409
-4.38489
-4.65774
-4.97491
-5.30435
-5.50603
-5.409
-4.91424
-3.91205
-2.4681
-0.835476
0.93394
2.64825
3.84936
4.37202
4.45009
4.31355
4.03448
3.73263
3.50128
3.34071
3.17656
2.93708
2.66314
2.3956
2.12938
1.89171
1.7092
1.57847
1.47306
1.36785
1.2664
1.15756
1.02588
0.890901
0.77373
0.676986
0.590366
0.502944
0.416214
0.327143
0.23019
0.129453
0.0295245
-0.0690761
-0.165859
-0.260805
-0.357202
-0.456429
-0.558367
-0.672646
-0.809789
-0.973055
-1.15425
-1.34498
-1.54889
-1.74877
-1.9293
-2.12961
-2.39268
-2.72956
-3.11166
-3.50766
-3.92325
-4.30185
-4.58691
-4.87082
-5.24283
-5.67637
-5.98966
-5.95792
-5.48385
-4.38911
-2.74585
-0.921736
1.07499
3.06012
4.40523
4.87527
4.84768
4.63209
4.26083
3.88483
3.62601
3.47641
3.32511
3.05953
2.75395
2.4676
2.17525
1.91547
1.72651
1.60257
1.50608
1.40132
1.30326
1.19658
1.05392
0.906265
0.783841
0.688423
0.604537
0.51625
0.429497
0.340472
0.239888
0.134787
0.0318195
-0.0692963
-0.167849
-0.263073
-0.35988
-0.459411
-0.558534
-0.670457
-0.809571
-0.98059
-1.171
-1.36827
-1.58431
-1.79269
-1.96239
-2.15146
-2.42016
-2.7836
-3.19922
-3.62247
-4.08451
-4.50394
-4.7803
-5.06246
-5.49058
-6.04881
-6.49989
-6.54405
-6.11441
-4.92119
-3.03647
-1.00689
1.23066
3.53494
5.04747
5.41944
5.25172
4.95639
4.47794
4.0156
3.73151
3.60642
3.48166
3.18172
2.8384
2.53724
2.21504
1.92927
1.73488
1.62219
1.53872
1.43252
1.33963
1.23848
1.08139
0.91779
0.790116
0.697921
0.618663
0.528795
0.442502
0.354692
0.249744
0.139627
0.0337859
-0.0698264
-0.17017
-0.265043
-0.362098
-0.462318
-0.557082
-0.664935
-0.805338
-0.985357
-1.18616
-1.38818
-1.61917
-1.83961
-1.99161
-2.16232
-2.4345
-2.8287
-3.28202
-3.72738
-4.24416
-4.71532
-4.96454
-5.22731
-5.71109
-6.41857
-7.03931
-7.16451
-6.81398
-5.51745
-3.33272
-1.08633
1.39762
4.08058
5.79355
6.00223
5.65291
5.28772
4.68372
4.12008
3.81404
3.73076
3.65165
3.30362
2.91431
2.6063
2.2489
1.93193
1.73347
1.63759
1.5726
1.46083
1.37539
1.28504
1.10843
0.924679
0.792032
0.705527
0.633416
0.540394
0.455128
0.370285
0.259778
0.14377
0.0354142
-0.0707069
-0.17302
-0.266673
-0.363855
-0.465733
-0.554185
-0.655898
-0.79672
-0.987525
-1.20054
-1.40389
-1.65374
-1.89241
-2.0174
-2.161
-2.43412
-2.86503
-3.36216
-3.8195
-4.40214
-4.94317
-5.1392
-5.35944
-5.89614
-6.78223
-7.61248
-7.81289
-7.59237
-6.19036
-3.62317
-1.15376
1.56909
4.70495
6.6661
6.61856
6.03829
5.62982
4.87629
4.19279
3.86945
3.84925
3.84269
3.42459
2.97835
2.67759
2.27704
1.92198
1.72129
1.64908
1.60996
1.48515
1.41013
1.33871
1.13507
0.925883
0.789004
0.711295
0.649751
0.550679
0.467173
0.387923
0.269965
0.146931
0.0367403
-0.0719474
-0.176659
-0.26786
-0.365041
-0.470422
-0.550017
-0.643129
-0.783203
-0.987262
-1.21532
-1.41402
-1.68801
-1.95494
-2.04013
-2.14607
-2.41711
-2.89279
-3.44303
-3.89437
-4.55765
-5.19758
-5.3037
-5.45238
-6.03619
-7.13595
-8.22722
-8.47748
-8.46169
-6.95707
-3.89061
-1.20112
1.73325
5.41563
7.69476
7.25946
6.39027
5.99034
5.05369
4.22754
3.89316
3.96128
4.0652
3.54303
3.02556
2.75545
2.29958
1.89756
1.69725
1.65689
1.65401
1.50362
1.44302
1.40284
1.16111
0.920063
0.780404
0.715266
0.669017
0.559024
0.478293
0.408544
0.280207
0.148719
0.0378681
-0.0735141
-0.181443
-0.268417
-0.365383
-0.477403
-0.54473
-0.626384
-0.764099
-0.984701
-1.23231
-1.41644
-1.72148
-2.03234
-2.05988
-2.11585
-2.38108
-2.91216
-3.52997
-3.9455
-4.70866
-5.49252
-5.45694
-5.49922
-6.12029
-7.47507
-8.89644
-9.13879
-9.43697
-7.84128
-4.10994
-1.21866
1.87111
6.21933
8.91846
7.91074
6.68541
6.38258
5.21361
4.21731
3.88028
4.06528
4.33337
3.65591
3.04886
2.84636
2.31641
1.8564
1.66014
1.66108
1.70919
1.51337
1.4727
1.48202
1.18596
0.90555
0.765607
0.717408
0.693091
0.56443
0.487968
0.433455
0.29029
0.148611
0.0389982
-0.0753139
-0.187868
-0.268066
-0.364381
-0.488033
-0.538412
-0.605421
-0.738511
-0.979874
-1.25418
-1.40808
-1.75298
-2.13142
-2.07628
-2.06847
-2.32314
-2.92305
-3.63102
-3.96371
-4.85127
-5.84705
-5.59663
-5.49288
-6.13587
-7.79352
-9.64068
-9.76629
-10.5371
-8.87567
-4.24544
-1.1953
1.95392
7.12124
10.3884
8.55115
6.89312
6.82772
5.35261
4.15427
3.82579
4.15804
4.66629
3.75819
3.03846
2.95979
2.32686
1.79573
1.60872
1.66128
1.7817
1.51017
1.49706
1.58244
1.20849
0.880331
0.744053
0.71754
0.724563
0.565392
0.495456
0.464455
0.299822
0.145921
0.0404629
-0.0771737
-0.196626
-0.266427
-0.361213
-0.504126
-0.53103
-0.580037
-0.705295
-0.972603
-1.28485
-1.38466
-1.78042
-2.26124
-2.08815
-2.00196
-2.23985
-2.92474
-3.75802
-3.93628
-4.97893
-6.28686
-5.7184
-5.42648
-6.06877
-8.08277
-10.4916
-10.3142
-11.7858
-10.1049
-4.24731
-1.11965
1.93999
8.1242
12.1714
9.15034
6.97403
7.35765
5.46509
4.02969
3.72485
4.23376
5.0894
3.84211
2.98115
3.10926
2.32936
1.71229
1.54186
1.65648
1.88005
1.48802
1.51309
1.71245
1.22666
0.84204
0.715338
0.715199
0.766959
0.559726
0.499749
0.50399
0.308151
0.139772
0.0427673
-0.0788151
-0.20867
-0.263013
-0.354628
-0.528095
-0.52234
-0.550131
-0.663036
-0.962337
-1.32989
-1.34039
-1.80038
-2.43375
-2.09309
-1.91441
-2.12717
-2.91541
-3.92791
-3.84618
-5.08142
-6.84621
-5.81442
-5.29394
-5.90323
-8.33022
-11.4965
-10.7164
-13.213
-11.5892
-4.04729
-0.981631
1.7709
9.22781
14.3544
9.66626
6.87838
8.0183
5.54178
3.83415
3.57333
4.28276
5.63621
3.89626
2.85949
3.31361
2.32076
1.60232
1.45867
1.64454
2.01573
1.43866
1.51665
1.88312
1.23721
0.787998
0.679332
0.709463
0.825023
0.544362
0.499521
0.555333
0.314267
0.129071
0.0466353
-0.0798227
-0.225291
-0.257227
-0.342798
-0.563135
-0.511765
-0.515782
-0.610028
-0.947913
-1.39711
-1.26769
-1.80776
-2.66458
-2.08689
-1.80424
-1.98053
-2.89135
-4.16438
-3.671
-5.14366
-7.5702
-5.87171
-5.09084
-5.62207
-8.5169
-12.7244
-10.8794
-14.8563
-13.4086
-3.55342
-0.775124
1.36719
10.4272
17.0487
10.0422
6.5441
8.87368
5.5676
3.55773
3.36848
4.28982
6.35039
3.9046
2.65101
3.59849
2.29559
1.46164
1.35876
1.62169
2.20412
1.35098
1.50224
2.10893
1.23516
0.715275
0.636328
0.698708
0.905055
0.515102
0.49309
0.622795
0.31667
0.112488
0.0530584
-0.0796087
-0.248201
-0.248379
-0.323155
-0.613444
-0.498232
-0.47736
-0.544281
-0.927247
-1.49717
-1.15678
-1.79524
-2.97403
-2.06273
-1.67052
-1.7949
-2.84596
-4.49974
-3.38197
-5.14424
-8.51758
-5.8698
-4.81553
-5.20711
-8.6143
-14.2727
-10.6755
-16.7633
-15.6684
-2.64365
-0.501725
0.62357
11.7122
20.3956
10.2033
5.89502
10.0103
5.51905
3.1905
3.10982
4.2322
7.28813
3.84521
2.32723
3.99817
2.24503
1.2858
1.24255
1.58179
2.46545
1.21038
1.46273
2.40858
1.21322
0.620816
0.587225
0.680295
1.01531
0.466331
0.478372
0.711957
0.313213
0.0884521
0.0633439
-0.0773705
-0.279629
-0.235699
-0.292189
-0.684479
-0.479962
-0.435659
-0.463546
-0.896922
-1.64432
-0.995402
-1.75274
-3.38812
-2.0103
-1.51346
-1.56501
-2.76851
-4.97714
-2.94278
-5.05373
-9.76397
-5.77793
-4.47055
-4.63984
-8.58022
-16.2767
-9.93297
-18.9929
-18.5038
-1.15842
-0.175921
)
;

boundaryField
{
    left
    {
        type            calculated;
        value           uniform 0;
    }
    right
    {
        type            calculated;
        value           uniform 0;
    }
    interface
    {
        type            calculated;
        value           nonuniform List<scalar> 
64
(
0.62357
11.7122
20.3956
10.2033
5.89502
10.0103
5.51905
3.1905
3.10982
4.2322
7.28813
3.84521
2.32723
3.99817
2.24503
1.2858
1.24255
1.58179
2.46545
1.21038
1.46273
2.40858
1.21322
0.620816
0.587225
0.680295
1.01531
0.466331
0.478372
0.711957
0.313213
0.0884521
0.0633439
-0.0773705
-0.279629
-0.235699
-0.292189
-0.684479
-0.479962
-0.435659
-0.463546
-0.896922
-1.64432
-0.995402
-1.75274
-3.38812
-2.0103
-1.51346
-1.56501
-2.76851
-4.97714
-2.94278
-5.05373
-9.76397
-5.77793
-4.47055
-4.63984
-8.58022
-16.2767
-9.93297
-18.9929
-18.5038
-1.15842
-0.175921
)
;
    }
    bottom
    {
        type            calculated;
        value           nonuniform List<scalar> 
64
(
0.00777615
0.0230177
0.0373427
0.0502414
0.0613442
0.0704191
0.0773846
0.0822876
0.0852688
0.0865312
0.086312
0.0848595
0.0824169
0.0792105
0.0754424
0.0712864
0.0668855
0.0623526
0.0577716
0.0532018
0.0486819
0.0442349
0.039872
0.0355959
0.0314032
0.0272852
0.0232297
0.0192209
0.0152401
0.0112668
0.00727883
0.00325254
-0.000836819
-0.00501516
-0.00930949
-0.0137476
-0.0183576
-0.0231664
-0.0281989
-0.0334758
-0.0390115
-0.0448125
-0.0508751
-0.0571829
-0.0637042
-0.0703884
-0.0771613
-0.0839202
-0.0905284
-0.0968108
-0.102551
-0.107493
-0.111341
-0.113773
-0.114446
-0.113025
-0.109196
-0.102712
-0.093418
-0.0812983
-0.0665028
-0.0493651
-0.0303981
-0.010266
)
;
    }
    defaultFaces
    {
        type            empty;
    }
}


// ************************************************************************* //
