/*--------------------------------*- C++ -*----------------------------------*\
| =========                 |                                                 |
| \\      /  F ield         | OpenFOAM: The Open Source CFD Toolbox           |
|  \\    /   O peration     | Version:  5.x                                   |
|   \\  /    A nd           | Web:      www.OpenFOAM.org                      |
|    \\/     M anipulation  |                                                 |
\*---------------------------------------------------------------------------*/
FoamFile
{
    version     2.0;
    format      ascii;
    class       volScalarField;
    location    "1";
    object      T;
}
// * * * * * * * * * * * * * * * * * * * * * * * * * * * * * * * * * * * * * //

dimensions      [0 0 0 1 0 0 0];

internalField   nonuniform List<scalar> 
2048
(
9.82609
9.82633
9.82681
9.8275
9.82838
9.82941
9.83058
9.83183
9.83315
9.8345
9.83585
9.83719
9.8385
9.83977
9.84098
9.84213
9.84321
9.84422
9.84516
9.84602
9.84682
9.84754
9.8482
9.84879
9.84931
9.84977
9.85017
9.8505
9.85077
9.85097
9.85112
9.8512
9.85122
9.85118
9.85106
9.85088
9.85063
9.85031
9.84991
9.84943
9.84886
9.84821
9.84746
9.84662
9.84568
9.84463
9.84348
9.84222
9.84085
9.83939
9.83783
9.83618
9.83447
9.83271
9.83091
9.82913
9.82738
9.82572
9.82417
9.8228
9.82163
9.82072
9.82009
9.81977
9.48567
9.4864
9.48782
9.48988
9.49251
9.4956
9.49907
9.50281
9.50672
9.51073
9.51475
9.51873
9.52262
9.52637
9.52995
9.53335
9.53654
9.53953
9.54231
9.54487
9.54722
9.54936
9.5513
9.55305
9.55459
9.55594
9.55711
9.55809
9.55889
9.5595
9.55993
9.56017
9.56023
9.5601
9.55977
9.55924
9.5585
9.55755
9.55637
9.55495
9.55328
9.55135
9.54915
9.54666
9.54387
9.54078
9.53737
9.53365
9.52961
9.52528
9.52066
9.51578
9.5107
9.50546
9.50014
9.49483
9.48964
9.48468
9.48008
9.47597
9.4725
9.46977
9.46789
9.46693
9.1596
9.16082
9.16319
9.16662
9.17099
9.17612
9.18187
9.18805
9.19451
9.20112
9.20775
9.21429
9.22067
9.22681
9.23268
9.23824
9.24347
9.24835
9.25288
9.25706
9.2609
9.26439
9.26756
9.2704
9.27292
9.27513
9.27703
9.27863
9.27993
9.28093
9.28163
9.28203
9.28213
9.28191
9.28138
9.28053
9.27933
9.27778
9.27586
9.27356
9.27084
9.2677
9.26412
9.26006
9.25551
9.25047
9.24491
9.23883
9.23223
9.22513
9.21756
9.20957
9.20122
9.1926
9.18384
9.17508
9.1665
9.15829
9.15066
9.14385
9.13807
9.13353
9.1304
9.12881
8.84698
8.84869
8.85204
8.85687
8.86301
8.87022
8.87825
8.88688
8.89588
8.90506
8.91424
8.92329
8.9321
8.94057
8.94865
8.95629
8.96346
8.97016
8.97637
8.9821
8.98735
8.99214
8.99647
9.00036
9.00381
9.00683
9.00943
9.01162
9.0134
9.01477
9.01573
9.01629
9.01643
9.01614
9.01543
9.01426
9.01264
9.01053
9.00792
9.00478
9.00108
8.9968
8.9919
8.98635
8.98014
8.97324
8.96562
8.95728
8.94822
8.93846
8.92804
8.91701
8.90547
8.89355
8.88139
8.86922
8.85726
8.84579
8.83512
8.82556
8.81744
8.81105
8.80664
8.80439
8.54696
8.5492
8.55357
8.55987
8.56785
8.57718
8.58756
8.59867
8.61022
8.62196
8.63368
8.6452
8.65639
8.66713
8.67735
8.68699
8.69604
8.70447
8.71229
8.7195
8.7261
8.73212
8.73756
8.74244
8.74677
8.75056
8.75383
8.75658
8.75882
8.76054
8.76176
8.76246
8.76265
8.7623
8.76142
8.75997
8.75795
8.75532
8.75206
8.74814
8.74352
8.73816
8.73202
8.72508
8.71728
8.70861
8.69903
8.68853
8.67711
8.66478
8.65159
8.63761
8.62294
8.60774
8.59222
8.57662
8.56125
8.54648
8.53269
8.52031
8.50976
8.50144
8.49569
8.49275
8.25879
8.2616
8.26706
8.27492
8.28483
8.29639
8.30919
8.32283
8.33697
8.35129
8.36553
8.3795
8.39302
8.40597
8.41827
8.42985
8.4407
8.4508
8.46015
8.46876
8.47665
8.48383
8.49033
8.49615
8.50132
8.50585
8.50975
8.51303
8.5157
8.51777
8.51923
8.52008
8.52031
8.51992
8.51888
8.51717
8.51478
8.51168
8.50782
8.50317
8.49768
8.49132
8.48402
8.47576
8.46647
8.45612
8.44467
8.43211
8.41842
8.40361
8.38773
8.37085
8.3531
8.33465
8.31576
8.29671
8.27789
8.25972
8.2427
8.22737
8.21427
8.20392
8.19674
8.19307
7.98177
7.98519
7.99184
8.00137
8.01335
8.02725
8.04257
8.05883
8.0756
8.09252
8.1093
8.12568
8.1415
8.15661
8.17093
8.18439
8.19696
8.20865
8.21946
8.22941
8.23852
8.24681
8.2543
8.26102
8.26698
8.27221
8.27671
8.2805
8.28359
8.28598
8.28767
8.28867
8.28895
8.28851
8.28734
8.2854
8.28268
8.27913
8.27472
8.26939
8.26311
8.25581
8.24743
8.23792
8.22722
8.21529
8.20207
8.18754
8.17167
8.15446
8.13596
8.11625
8.09546
8.07379
8.05151
8.02896
8.0066
7.98492
7.96454
7.9461
7.93029
7.91775
7.90905
7.90459
7.71525
7.71934
7.72728
7.73864
7.75283
7.76922
7.78719
7.80615
7.82562
7.84517
7.86448
7.88328
7.90136
7.91859
7.93486
7.95012
7.96435
7.97755
7.98975
8.00097
8.01123
8.02057
8.02902
8.03658
8.0433
8.04918
8.05425
8.05852
8.062
8.0647
8.06663
8.06776
8.0681
8.06764
8.06634
8.0642
8.06117
8.05722
8.0523
8.04635
8.03933
8.03116
8.02177
8.0111
7.99908
7.98565
7.97076
7.95435
7.93639
7.91688
7.89584
7.87335
7.84955
7.82466
7.79897
7.77288
7.74687
7.72155
7.69763
7.67589
7.65717
7.64228
7.63191
7.62659
7.45859
7.46344
7.47282
7.48617
7.50276
7.52182
7.54257
7.56434
7.58657
7.60879
7.63064
7.65183
7.67214
7.69143
7.70959
7.72659
7.7424
7.75705
7.77056
7.78298
7.79434
7.80468
7.81401
7.82238
7.8298
7.83631
7.84191
7.84664
7.8505
7.8535
7.85564
7.85692
7.85732
7.85683
7.85543
7.8531
7.8498
7.84548
7.8401
7.83359
7.82589
7.81692
7.8066
7.79484
7.78159
7.76676
7.75027
7.73208
7.71213
7.6904
7.6669
7.64169
7.61492
7.58682
7.5577
7.52799
7.49823
7.46911
7.44146
7.4162
7.39434
7.37688
7.3647
7.35843
7.21123
7.21692
7.22791
7.24346
7.26267
7.28457
7.30826
7.33295
7.35801
7.38293
7.40732
7.43088
7.45339
7.4747
7.49469
7.51335
7.53067
7.54669
7.56145
7.575
7.5874
7.59867
7.60885
7.61797
7.62606
7.63315
7.63927
7.64442
7.64864
7.65193
7.65428
7.65569
7.65616
7.65566
7.65418
7.65168
7.64813
7.64349
7.63769
7.63067
7.62235
7.61264
7.60145
7.5887
7.57429
7.55814
7.54017
7.5203
7.49845
7.47459
7.4487
7.42084
7.39114
7.35983
7.32725
7.29386
7.26025
7.22716
7.19555
7.16652
7.14126
7.121
7.10681
7.0995
6.97261
6.97926
6.99205
7.01005
7.03211
7.05707
7.08386
7.11157
7.13952
7.16717
7.19411
7.22003
7.2447
7.26796
7.28973
7.30997
7.32872
7.34603
7.36197
7.37659
7.38996
7.40212
7.4131
7.42293
7.43165
7.43929
7.44588
7.45145
7.45601
7.45956
7.46212
7.46367
7.4642
7.4637
7.46214
7.4595
7.45574
7.4508
7.44463
7.43715
7.42827
7.41789
7.40591
7.39223
7.37675
7.35937
7.34
7.31854
7.2949
7.269
7.24081
7.21036
7.17777
7.14328
7.10723
7.07009
7.03251
6.99529
6.95949
6.92639
6.89743
6.87409
6.85768
6.84921
6.7422
6.74995
6.76477
6.78549
6.81069
6.83894
6.86899
6.89984
6.93073
6.96112
6.9906
7.01886
7.04565
7.07081
7.09428
7.11604
7.13614
7.15466
7.17169
7.18732
7.20161
7.2146
7.22634
7.23684
7.24615
7.25431
7.26135
7.2673
7.27218
7.276
7.27875
7.28044
7.28104
7.28054
7.27892
7.27616
7.2722
7.26701
7.26051
7.25262
7.24324
7.23225
7.21955
7.20501
7.18853
7.17001
7.14934
7.1264
7.10106
7.07323
7.04282
7.00985
6.97442
6.93677
6.89723
6.8563
6.81464
6.77311
6.73287
6.6954
6.6624
6.63566
6.6168
6.60704
6.51951
6.5285
6.54564
6.56941
6.59804
6.62982
6.6633
6.69738
6.73126
6.7644
6.79641
6.82697
6.85583
6.88285
6.90794
6.93113
6.9525
6.97215
6.99021
7.00678
7.02194
7.03572
7.04817
7.0593
7.06917
7.07781
7.08527
7.09158
7.09677
7.10084
7.10378
7.1056
7.10627
7.10579
7.10412
7.10125
7.09713
7.09171
7.08492
7.07666
7.06683
7.0553
7.04194
7.02662
7.00923
6.98965
6.96776
6.94344
6.91652
6.88685
6.85432
6.81891
6.7807
6.7399
6.69688
6.65213
6.60629
6.56027
6.51534
6.47316
6.43575
6.40526
6.38367
6.37248
6.30403
6.31447
6.33423
6.36142
6.39382
6.42939
6.46647
6.50385
6.54075
6.57664
6.61115
6.64398
6.67488
6.70368
6.73033
6.75487
6.77741
6.79811
6.81713
6.83459
6.85055
6.86508
6.8782
6.88993
6.90031
6.9094
6.91725
6.92391
6.92939
6.9337
6.93683
6.93878
6.93952
6.93905
6.93735
6.93438
6.93012
6.92451
6.91746
6.9089
6.89867
6.88666
6.8727
6.85667
6.83843
6.81786
6.79486
6.76925
6.74086
6.70947
6.67493
6.63715
6.59621
6.55231
6.50582
6.45722
6.40714
6.35648
6.30658
6.25932
6.21709
6.18244
6.15782
6.14503
6.0953
6.1074
6.13018
6.16121
6.19774
6.23736
6.27819
6.31895
6.35886
6.39747
6.43447
6.46954
6.50242
6.53294
6.56107
6.58687
6.61049
6.63216
6.65206
6.67034
6.68708
6.70231
6.71607
6.72835
6.73922
6.74873
6.75694
6.76392
6.76967
6.77421
6.77753
6.77961
6.78043
6.77998
6.77824
6.7752
6.77081
6.76503
6.75777
6.74894
6.73838
6.72593
6.71144
6.69476
6.67574
6.65427
6.63023
6.60345
6.5737
6.54071
6.50425
6.4642
6.4206
6.37364
6.3237
6.27125
6.21688
6.16143
6.10629
6.05357
6.00605
5.96681
5.93881
5.92426
5.89287
5.90689
5.93314
5.96848
6.00953
6.05347
6.0982
6.14237
6.18527
6.22656
6.26599
6.30327
6.33808
6.37027
6.3998
6.42676
6.45138
6.47392
6.49464
6.51368
6.53114
6.54705
6.56141
6.57422
6.58553
6.59542
6.60398
6.61125
6.61727
6.62204
6.62554
6.62774
6.62863
6.6282
6.62644
6.62333
6.61884
6.61292
6.60548
6.59642
6.58558
6.57276
6.5578
6.54052
6.52078
6.49847
6.47348
6.44564
6.41466
6.38018
6.34192
6.29969
6.25349
6.20351
6.15016
6.09391
6.03523
5.97487
5.91421
5.85562
5.80231
5.75797
5.72623
5.70973
5.69627
5.71253
5.74276
5.78297
5.82895
5.87747
5.92622
5.9738
6.01964
6.06354
6.10538
6.14484
6.18153
6.21532
6.24616
6.27419
6.2997
6.32303
6.34449
6.36425
6.38239
6.39895
6.41389
6.42719
6.43891
6.44915
6.45802
6.46558
6.47185
6.47683
6.48051
6.48283
6.4838
6.4834
6.48162
6.47845
6.47387
6.46783
6.46024
6.451
6.43993
6.4268
6.41141
6.3936
6.3732
6.35011
6.32425
6.29544
6.26336
6.22754
6.18758
6.14326
6.09454
6.04159
5.98487
5.92487
5.86192
5.79656
5.73012
5.66521
5.60557
5.55556
5.51968
5.50103
5.50509
5.52393
5.55876
5.60445
5.6558
5.70915
5.76202
5.81299
5.86166
5.90809
5.9523
5.9939
6.03244
6.06775
6.09983
6.12883
6.15512
6.17914
6.20128
6.22171
6.2405
6.25768
6.27319
6.28694
6.29902
6.30958
6.31874
6.32657
6.33308
6.33828
6.34212
6.34457
6.34561
6.34523
6.34344
6.34022
6.33557
6.32943
6.32172
6.31235
6.30109
6.2877
6.27195
6.25365
6.23265
6.20882
6.18216
6.1525
6.11945
6.08242
6.04089
5.99458
5.94342
5.88753
5.82749
5.76384
5.69669
5.62629
5.5538
5.48212
5.41555
5.35924
5.31878
5.2978
5.31887
5.3407
5.38086
5.43273
5.48988
5.54829
5.60537
5.65964
5.71102
5.75986
5.80641
5.85015
5.89047
5.92725
5.96049
5.99034
6.0173
6.04192
6.06467
6.08572
6.10513
6.12293
6.13898
6.15316
6.16557
6.1764
6.18583
6.1939
6.20065
6.20606
6.21008
6.21265
6.21376
6.21341
6.2116
6.20834
6.20362
6.19739
6.1896
6.18013
6.16874
6.15516
6.13908
6.12034
6.09878
6.07427
6.04685
6.01646
5.98258
5.94449
5.9015
5.85331
5.79978
5.74099
5.67768
5.61052
5.5393
5.46387
5.38507
5.30613
5.23201
5.16867
5.12316
5.09968
5.13721
5.16248
5.20883
5.26767
5.33102
5.39472
5.45605
5.5135
5.56741
5.61852
5.66739
5.71328
5.75533
5.79351
5.82783
5.85842
5.88592
5.91104
5.93435
5.95599
5.97598
5.99439
6.01099
6.02555
6.03825
6.04931
6.05898
6.0673
6.07426
6.07988
6.08409
6.08678
6.08795
6.08762
6.08579
6.08249
6.07772
6.07143
6.06357
6.05404
6.04258
6.02885
6.0125
5.99337
5.97129
5.9461
5.91799
5.88698
5.85243
5.81344
5.7691
5.71912
5.66333
5.60162
5.53508
5.4646
5.38952
5.30913
5.22376
5.13707
5.05473
4.9835
4.93248
4.90637
4.95969
4.98888
5.04245
5.10917
5.17908
5.24824
5.31387
5.37431
5.43052
5.48373
5.53492
5.583
5.6267
5.66622
5.70156
5.73276
5.76068
5.78617
5.81001
5.83221
5.85275
5.87178
5.88892
5.90384
5.91677
5.92802
5.93792
5.94647
5.95364
5.95948
5.96386
5.96667
5.96791
5.96759
5.96575
5.96241
5.9576
5.95125
5.94333
5.9338
5.92231
5.90849
5.89191
5.87242
5.84988
5.82402
5.79523
5.76373
5.72868
5.68896
5.64338
5.59172
5.53376
5.46912
5.39933
5.32577
5.24712
5.16194
5.06973
4.97476
4.88355
4.80339
4.74639
4.71758
4.78592
4.81951
4.88155
4.95718
5.0339
5.10867
5.17865
5.24182
5.30005
5.35513
5.40869
5.45904
5.5043
5.5451
5.58141
5.61308
5.64127
5.66703
5.69135
5.7141
5.73514
5.75482
5.77254
5.78776
5.80086
5.81225
5.82237
5.83114
5.8385
5.84457
5.84914
5.85206
5.85336
5.85306
5.85119
5.84781
5.84297
5.83656
5.82861
5.81911
5.80766
5.79381
5.77702
5.75722
5.73426
5.70771
5.67824
5.64638
5.611
5.57075
5.52402
5.47078
5.41081
5.34314
5.27007
5.19375
5.11186
5.02217
4.92284
4.81905
4.71834
4.62798
4.56455
4.53309
4.61551
4.65397
4.72598
4.8117
4.89534
4.97582
5.05022
5.11576
5.17571
5.23237
5.28841
5.34117
5.38784
5.42987
5.46713
5.49909
5.52742
5.5533
5.57811
5.60139
5.62288
5.64325
5.66158
5.67704
5.69026
5.70174
5.71207
5.72107
5.7286
5.7349
5.73968
5.7427
5.74405
5.74376
5.74186
5.73844
5.73358
5.72712
5.71913
5.70971
5.69835
5.68455
5.66756
5.64748
5.62418
5.59688
5.56669
5.53464
5.49912
5.45857
5.41072
5.356
5.29424
5.22337
5.14689
5.06823
4.98354
4.88976
4.78296
4.66978
4.55906
4.45684
4.38664
4.3527
4.44813
4.4918
4.57565
4.67285
4.76322
4.8495
4.92846
4.99587
5.05721
5.11506
5.1738
5.22917
5.27703
5.32025
5.35848
5.39052
5.41885
5.4447
5.47003
5.49384
5.51568
5.53682
5.55584
5.57146
5.58473
5.59621
5.60678
5.616
5.62367
5.63023
5.63524
5.63834
5.63973
5.63945
5.63752
5.63404
5.62919
5.62267
5.61463
5.60536
5.59414
5.58046
5.56328
5.54294
5.51941
5.49126
5.46027
5.42822
5.39274
5.35215
5.3032
5.24708
5.18385
5.10952
5.02937
4.94892
4.86189
4.76466
4.64994
4.52677
4.40579
4.28951
4.21234
4.17629
4.28346
4.33249
4.43049
4.54081
4.63732
4.7295
4.81325
4.88189
4.94427
5.00281
5.06456
5.12289
5.17158
5.21597
5.25526
5.28712
5.31532
5.34091
5.36685
5.39123
5.41326
5.43529
5.4551
5.47076
5.48403
5.49542
5.50626
5.51572
5.52347
5.53032
5.53559
5.53876
5.54018
5.53991
5.53793
5.53439
5.52956
5.52298
5.51486
5.50579
5.49477
5.48132
5.46391
5.44334
5.41973
5.39059
5.35863
5.32683
5.29157
5.2513
5.20117
5.1437
5.07947
5.00128
4.91705
4.83554
4.74666
4.64691
4.52366
4.3898
4.25874
4.12538
4.04133
4.0038
4.12126
4.17543
4.2905
4.41589
4.51736
4.61558
4.70456
4.77351
4.83667
4.89517
4.96046
5.02221
5.07118
5.11676
5.15729
5.18862
5.21658
5.24166
5.26836
5.29335
5.31535
5.33844
5.35919
5.37473
5.38794
5.39911
5.41029
5.42002
5.42776
5.43497
5.44053
5.44372
5.44518
5.44491
5.44288
5.43924
5.43449
5.42782
5.41957
5.4108
5.4
5.38692
5.36923
5.34841
5.32496
5.29461
5.26145
5.23024
5.19533
5.15583
5.10433
5.04552
4.98103
4.89838
4.80939
4.72785
4.63754
4.53659
4.40394
4.25857
4.11836
3.96367
3.87332
3.83523
3.96138
4.01986
4.15574
4.29856
4.40295
4.50748
4.6024
4.6704
4.73419
4.79166
4.86123
4.92708
4.97548
5.02235
5.06443
5.09474
5.12244
5.14662
5.17435
5.20003
5.22164
5.24606
5.26796
5.28312
5.29626
5.30704
5.31867
5.3287
5.33631
5.34395
5.34986
5.35302
5.3545
5.35424
5.35215
5.34837
5.34377
5.33698
5.32852
5.32016
5.3096
5.29708
5.27898
5.25789
5.23498
5.2031
5.16837
5.13822
5.10373
5.06562
5.01239
4.95215
4.88852
4.80055
4.7058
4.62566
4.53415
4.43391
4.2906
4.13264
3.9854
3.80336
3.70804
3.67069
3.80378
3.86484
4.02632
4.18948
4.29354
4.40489
4.50691
4.57215
4.63673
4.69171
4.76667
4.83753
4.88411
4.93248
4.9766
5.0052
5.03272
5.05547
5.08464
5.11115
5.13183
5.15793
5.18128
5.1957
5.20879
5.21895
5.23121
5.24159
5.24888
5.25707
5.2634
5.26644
5.26796
5.26771
5.26554
5.26156
5.25722
5.25028
5.24146
5.23368
5.22334
5.21164
5.19294
5.17149
5.14967
5.11585
5.07901
5.0506
5.01645
4.9806
4.92505
4.86316
4.80204
4.70757
4.60558
4.52887
4.436
4.33922
4.18341
4.01136
3.86109
3.64305
3.54532
3.51033
3.64856
3.70919
3.90244
4.08954
4.18839
4.30748
4.41832
4.47827
4.54425
4.59467
4.67655
4.75371
4.79662
4.84687
4.89378
4.91966
4.94729
4.96785
4.99906
5.0266
5.04556
5.07388
5.09907
5.11222
5.12538
5.13457
5.14773
5.15854
5.16523
5.17416
5.18097
5.18379
5.18534
5.18512
5.18288
5.1786
5.17466
5.16752
5.15816
5.1512
5.14097
5.13048
5.11089
5.08892
5.06901
5.03265
4.99295
4.96725
4.93313
4.90077
4.84202
4.77802
4.72183
4.61923
4.50788
4.43753
4.34245
4.25305
4.08213
3.89379
3.74724
3.48088
3.38508
3.3544
3.49604
3.55138
3.78441
3.99996
4.08648
4.21491
4.33705
4.38809
4.45687
4.49975
4.59071
4.67589
4.71247
4.76524
4.81602
4.83777
4.86609
4.88335
4.91748
4.94634
4.96244
4.99374
5.02129
5.0324
5.04591
5.05363
5.06808
5.07941
5.08509
5.09502
5.10245
5.10484
5.10648
5.1063
5.10399
5.09926
5.09595
5.08855
5.07835
5.07256
5.06223
5.05349
5.03261
5.00983
4.99299
4.95334
4.90973
4.88813
4.85334
4.82623
4.76299
4.6961
4.64827
4.53536
4.4117
4.35187
4.25261
4.17618
3.98646
3.77854
3.64648
3.31428
3.22746
3.20323
3.34678
3.3895
3.67263
3.92227
3.98645
4.12678
4.26375
4.30077
4.37493
4.40603
4.50899
4.60448
4.63101
4.68732
4.74346
4.75906
4.78914
4.80152
4.83981
4.8704
4.88203
4.91735
4.94794
4.95594
4.97029
4.97583
4.99212
5.00411
5.00822
5.01952
5.02768
5.02942
5.0312
5.03108
5.02871
5.02332
5.02095
5.01322
5.00178
4.99765
4.98686
4.98064
4.95788
4.93386
4.92173
4.87776
4.8288
4.81329
4.77659
4.7572
4.68766
4.61659
4.58197
4.45583
4.31579
4.2724
4.16531
4.10968
3.89611
3.66365
3.5625
3.1398
3.07287
3.05719
3.20164
3.22112
3.56764
3.85848
3.88649
4.0427
4.19932
4.21517
4.29902
4.31236
4.43128
4.54011
4.55144
4.61284
4.67638
4.68299
4.71656
4.72182
4.76599
4.79887
4.80382
4.84458
4.87909
4.88249
4.89849
4.90084
4.91974
4.93257
4.93432
4.94752
4.95657
4.95731
4.95933
4.95929
4.95691
4.95055
4.94955
4.94142
4.92816
4.92642
4.91454
4.91193
4.88651
4.86055
4.85541
4.80577
4.74953
4.74295
4.70223
4.69405
4.61572
4.53851
4.52376
4.38058
4.21863
4.20002
4.07893
4.05503
3.8108
3.54638
3.50039
2.95285
2.92215
2.91665
)
;

boundaryField
{
    left
    {
        type            zeroGradient;
    }
    right
    {
        type            zeroGradient;
    }
    interface
    {
        type            fixedValue;
        value           nonuniform List<scalar> 
64
(
3.13017
3.13017
3.51779
3.83425
3.83425
4.0016
4.17154
4.17154
4.26378
4.26378
4.39356
4.51123
4.51123
4.57637
4.6451
4.6451
4.68184
4.68184
4.73021
4.76464
4.76464
4.80918
4.84626
4.84626
4.86375
4.86375
4.88453
4.8979
4.8979
4.91244
4.92203
4.92203
4.92426
4.92426
4.92193
4.91484
4.91484
4.90646
4.89187
4.89187
4.87896
4.87896
4.85165
4.82417
4.82417
4.77077
4.70948
4.70948
4.66503
4.66503
4.58053
4.4987
4.4987
4.3443
4.16735
4.16735
4.03414
4.03414
3.76963
3.48329
3.48329
2.84781
2.84781
2.84781
)
;
    }
    bottom
    {
        type            fixedValue;
        value           uniform 10;
    }
    defaultFaces
    {
        type            empty;
    }
}


// ************************************************************************* //
