/*--------------------------------*- C++ -*----------------------------------*\
| =========                 |                                                 |
| \\      /  F ield         | OpenFOAM: The Open Source CFD Toolbox           |
|  \\    /   O peration     | Version:  5.x                                   |
|   \\  /    A nd           | Web:      www.OpenFOAM.org                      |
|    \\/     M anipulation  |                                                 |
\*---------------------------------------------------------------------------*/
FoamFile
{
    version     2.0;
    format      ascii;
    class       volScalarField;
    location    "3.5";
    object      gradTx;
}
// * * * * * * * * * * * * * * * * * * * * * * * * * * * * * * * * * * * * * //

dimensions      [0 -1 0 1 0 0 0];

internalField   nonuniform List<scalar> 
6300
(
-48.3034
-48.282
-48.239
-48.1743
-48.0878
-47.9792
-47.8486
-47.6961
-47.522
-47.327
-47.1121
-46.8789
-46.6288
-46.3637
-46.0852
-48.325
-48.3036
-48.2608
-48.1963
-48.1099
-48.0014
-47.8707
-47.7178
-47.543
-47.347
-47.1307
-46.8958
-46.644
-46.3773
-46.0977
-48.3681
-48.3469
-48.3043
-48.2402
-48.1542
-48.0459
-47.9151
-47.7615
-47.5854
-47.3873
-47.1682
-46.9298
-46.6742
-46.4041
-46.122
-48.4324
-48.4116
-48.3696
-48.3062
-48.2209
-48.1132
-47.9823
-47.828
-47.65
-47.4487
-47.2251
-46.9811
-46.7192
-46.4431
-46.1563
-48.5178
-48.4974
-48.4564
-48.3943
-48.3103
-48.2036
-48.0732
-47.9182
-47.738
-47.5326
-47.3027
-47.0503
-46.7787
-46.4928
-46.1981
-48.6237
-48.6041
-48.5645
-48.5043
-48.4225
-48.3178
-48.1887
-48.0337
-47.8514
-47.6411
-47.4029
-47.1387
-46.8527
-46.5514
-46.2433
-48.7493
-48.7308
-48.6933
-48.6361
-48.5577
-48.4565
-48.3302
-48.1766
-47.9931
-47.7776
-47.5293
-47.2493
-46.9422
-46.6169
-46.2863
-48.8935
-48.8765
-48.842
-48.789
-48.7158
-48.6203
-48.4993
-48.3495
-48.1668
-47.9472
-47.6874
-47.387
-47.05
-46.6877
-46.3195
-49.0548
-49.0399
-49.0094
-48.9623
-48.8965
-48.8095
-48.6974
-48.5555
-48.3776
-48.1569
-47.8864
-47.5615
-47.1834
-46.7646
-46.3333
-49.2312
-49.2189
-49.1936
-49.1542
-49.0986
-49.0239
-48.9255
-48.7975
-48.6314
-48.4165
-48.14
-47.7893
-47.3576
-46.8541
-46.3171
-49.42
-49.4109
-49.392
-49.3624
-49.32
-49.2619
-49.1834
-49.0776
-48.9341
-48.7378
-48.4679
-48.0983
-47.6037
-46.9771
-46.2627
-49.6181
-49.6126
-49.6013
-49.5834
-49.5573
-49.5204
-49.4688
-49.3956
-49.2898
-49.1329
-48.8956
-48.5322
-47.9819
-47.1882
-46.1718
-49.8217
-49.8203
-49.8174
-49.8127
-49.8053
-49.7938
-49.7758
-49.7463
-49.6964
-49.6087
-49.4492
-49.1533
-48.6036
-47.622
-46.0782
-50.0267
-50.0296
-50.0355
-50.0447
-50.0574
-50.0739
-50.0942
-50.1176
-50.1411
-50.1562
-50.1395
-50.0283
-49.6573
-48.6183
-46.1389
-50.2289
-50.2359
-50.2505
-50.2733
-50.3059
-50.3503
-50.4097
-50.4888
-50.5942
-50.7355
-50.9243
-51.1634
-51.3791
-51.0551
-47.2576
-45.8195
-45.5689
-45.3097
-45.0411
-44.7621
-44.471
-44.1661
-43.8459
-43.5091
-43.155
-42.7833
-42.3946
-41.9902
-41.5718
-41.1417
-40.7022
-40.2561
-39.8062
-39.3554
-38.9065
-38.4626
-38.0263
-37.6004
-37.1873
-36.7893
-36.4082
-36.0454
-35.7019
-35.3785
-35.0754
-34.7924
-34.5291
-34.2848
-34.0583
-33.8487
-33.6545
-33.4745
-33.3074
-33.152
-33.0069
-32.8712
-32.7436
-32.6234
-32.5098
-32.4025
-32.3012
-32.2063
-32.1185
-32.0386
-31.9678
-31.9073
-31.8582
-31.8216
-31.7984
-31.7892
-31.7944
-31.814
-31.8481
-31.8961
-31.9576
-32.0317
-32.1179
-32.2152
-32.3229
-32.4404
-32.5672
-32.7026
-32.8464
-32.998
-33.1572
-33.3236
-33.4969
-33.677
-33.8639
-34.0575
-34.2578
-34.4649
-34.6787
-34.8991
-35.126
-35.3592
-35.5987
-35.844
-36.0949
-36.3508
-36.6109
-36.8744
-37.1397
-37.4052
-37.6691
-45.8316
-45.5814
-45.3233
-45.0565
-44.7797
-44.491
-44.1884
-43.8701
-43.5344
-43.1804
-42.8079
-42.4176
-42.0106
-41.5891
-41.1553
-40.712
-40.2619
-39.8078
-39.3528
-38.8998
-38.4518
-38.0116
-37.5822
-37.166
-36.7653
-36.3821
-36.0178
-35.6734
-35.3496
-35.0467
-34.7643
-34.5022
-34.2593
-34.0345
-33.8267
-33.6344
-33.4562
-33.291
-33.1372
-32.9938
-32.8596
-32.7334
-32.6142
-32.5012
-32.3939
-32.2922
-32.1964
-32.1072
-32.0258
-31.9532
-31.891
-31.8404
-31.8025
-31.7783
-31.7686
-31.7735
-31.7934
-31.828
-31.8768
-31.9393
-32.0145
-32.1017
-32.2001
-32.3087
-32.427
-32.5545
-32.6906
-32.8349
-32.9871
-33.1466
-33.3133
-33.4869
-33.6671
-33.854
-34.0475
-34.2479
-34.455
-34.6688
-34.8894
-35.1165
-35.35
-35.5898
-35.8356
-36.0872
-36.3442
-36.6059
-36.8712
-37.1389
-37.4071
-37.674
-45.8549
-45.6054
-45.3496
-45.0866
-44.8146
-44.5312
-44.2337
-43.9195
-43.5863
-43.2328
-42.8587
-42.4646
-42.0524
-41.6243
-41.1831
-40.7319
-40.2736
-39.8112
-39.3477
-38.8863
-38.43
-37.9819
-37.5452
-37.1226
-36.7166
-36.3292
-35.9618
-35.6156
-35.2911
-34.9886
-34.7077
-34.4478
-34.2079
-33.9867
-33.7826
-33.5942
-33.4198
-33.2582
-33.108
-32.9679
-32.8368
-32.7133
-32.5962
-32.4845
-32.3775
-32.2749
-32.1772
-32.0852
-32.0002
-31.924
-31.8581
-31.8043
-31.7638
-31.7377
-31.7268
-31.7314
-31.7517
-31.7874
-31.8379
-31.9025
-31.9801
-32.0696
-32.17
-32.2805
-32.4004
-32.5292
-32.6665
-32.812
-32.9652
-33.1257
-33.293
-33.4669
-33.6473
-33.8341
-34.0275
-34.2278
-34.4349
-34.649
-34.8699
-35.0974
-35.3314
-35.5717
-35.8184
-36.0714
-36.3304
-36.595
-36.8642
-37.1367
-37.4105
-37.6835
-45.8873
-45.6387
-45.3865
-45.1298
-44.8661
-44.5919
-44.3034
-43.9964
-43.6677
-43.3151
-42.9383
-42.5382
-42.1172
-41.6785
-41.2257
-40.7622
-40.2914
-39.8164
-39.3401
-38.8657
-38.3966
-37.9362
-37.4882
-37.0557
-36.6415
-36.2476
-35.8757
-35.5268
-35.2014
-34.8996
-34.6211
-34.365
-34.1301
-33.9146
-33.7165
-33.534
-33.3654
-33.2092
-33.0643
-32.9294
-32.8033
-32.6843
-32.5708
-32.4614
-32.355
-32.251
-32.15
-32.0531
-31.9623
-31.8799
-31.8081
-31.7491
-31.7045
-31.6754
-31.6627
-31.6668
-31.6878
-31.7254
-31.7788
-31.847
-31.9284
-32.0217
-32.1255
-32.2388
-32.3609
-32.4916
-32.6306
-32.7778
-32.9326
-33.0946
-33.263
-33.4375
-33.618
-33.8045
-33.9975
-34.1974
-34.4046
-34.6191
-34.8405
-35.0687
-35.3033
-35.5442
-35.7918
-36.0464
-36.3081
-36.5769
-36.8521
-37.132
-37.4147
-37.6974
-45.9251
-45.6772
-45.4303
-45.1833
-44.9328
-44.6737
-44.3998
-44.1048
-43.7836
-43.4328
-43.0517
-42.6422
-42.2078
-41.7534
-41.2838
-40.8034
-40.3157
-39.8237
-39.33
-38.8379
-38.3508
-37.8732
-37.4092
-36.9628
-36.5373
-36.1348
-35.757
-35.4045
-35.0779
-34.7774
-34.5025
-34.2522
-34.0247
-33.8176
-33.6282
-33.4541
-33.2933
-33.1445
-33.0066
-32.8788
-32.7597
-32.6475
-32.5399
-32.4344
-32.3291
-32.2231
-32.117
-32.0125
-31.9126
-31.8207
-31.74
-31.6734
-31.6228
-31.5896
-31.5745
-31.578
-31.6001
-31.6407
-31.6986
-31.7723
-31.8597
-31.9587
-32.0672
-32.1841
-32.309
-32.4418
-32.5829
-32.7324
-32.8897
-33.0539
-33.2241
-33.3994
-33.5796
-33.7652
-33.9571
-34.1564
-34.3635
-34.5786
-34.8011
-35.0303
-35.2655
-35.5068
-35.7547
-36.0105
-36.2752
-36.5493
-36.8325
-37.123
-37.4184
-37.7151
-45.9627
-45.7144
-45.4746
-45.242
-45.0121
-44.777
-44.5269
-44.2514
-43.9423
-43.5942
-43.2064
-42.7821
-42.3276
-41.8504
-41.3579
-40.8554
-40.3467
-39.8336
-39.3182
-38.8029
-38.292
-37.7908
-37.3051
-36.8403
-36.4002
-35.987
-35.6019
-35.2453
-34.9174
-34.6186
-34.3488
-34.1069
-33.8903
-33.6954
-33.5183
-33.3555
-33.2044
-33.0642
-32.9347
-32.8158
-32.7065
-32.6046
-32.5062
-32.4073
-32.3044
-32.1957
-32.0818
-31.9655
-31.8516
-31.7454
-31.6519
-31.5748
-31.5164
-31.4778
-31.4597
-31.4623
-31.4861
-31.5309
-31.5956
-31.6779
-31.7745
-31.8817
-31.9968
-32.118
-32.2454
-32.38
-32.5231
-32.6755
-32.8365
-33.0045
-33.1775
-33.3539
-33.5332
-33.7166
-33.9059
-34.1035
-34.3106
-34.5272
-34.7519
-34.9828
-35.2186
-35.4592
-35.7059
-35.9614
-36.2282
-36.5083
-36.8016
-37.1065
-37.4195
-37.7359
-45.9912
-45.7398
-45.5085
-45.2971
-45.0991
-44.9023
-44.6906
-44.4469
-44.1572
-43.8132
-43.414
-42.966
-42.4803
-41.97
-41.4464
-40.9169
-40.384
-39.8474
-39.3063
-38.762
-38.2195
-37.6864
-37.1715
-36.6825
-36.2245
-35.7992
-35.4063
-35.045
-34.7153
-34.4185
-34.1554
-33.9254
-33.7248
-33.548
-33.3883
-33.2401
-33.1003
-32.9689
-32.8478
-32.7392
-32.6433
-32.5568
-32.4736
-32.3863
-32.2884
-32.1761
-32.0502
-31.9154
-31.7798
-31.6521
-31.5403
-31.4493
-31.3815
-31.3369
-31.315
-31.3163
-31.3419
-31.3925
-31.4674
-31.563
-31.6738
-31.7936
-31.9174
-32.043
-32.1713
-32.3057
-32.4499
-32.6059
-32.773
-32.9478
-33.1259
-33.3039
-33.4808
-33.6589
-33.8426
-34.0367
-34.2438
-34.4637
-34.6932
-34.9279
-35.1645
-35.4024
-35.6442
-35.8953
-36.1617
-36.4475
-36.7537
-37.078
-37.4152
-37.7587
-45.9973
-45.7362
-45.5142
-45.3331
-45.1846
-45.0494
-44.9004
-44.7089
-44.4506
-44.1119
-43.6923
-43.2042
-42.6687
-42.1089
-41.5438
-40.9834
-40.4272
-39.8681
-39.2992
-38.719
-38.1338
-37.5561
-37.0008
-36.4805
-36.002
-35.5652
-35.1656
-34.7994
-34.4664
-34.1701
-33.9149
-33.7017
-33.5256
-33.3764
-33.2421
-33.1129
-32.9845
-32.8589
-32.7432
-32.6448
-32.5666
-32.5044
-32.4472
-32.381
-32.2932
-32.1764
-32.0315
-31.8669
-31.6967
-31.5363
-31.3987
-31.2908
-31.2134
-31.1632
-31.1372
-31.1355
-31.1616
-31.2193
-31.3093
-31.4262
-31.5601
-31.6996
-31.8354
-31.9639
-32.0885
-32.2173
-32.3595
-32.5203
-32.6983
-32.8861
-33.0742
-33.2551
-33.4264
-33.5929
-33.7642
-33.9506
-34.1583
-34.3861
-34.6266
-34.8699
-35.1082
-35.3394
-35.5686
-35.8069
-36.0667
-36.3569
-36.6794
-37.0302
-37.4012
-37.7824
-45.9613
-45.6766
-45.461
-45.3223
-45.2512
-45.2165
-45.1719
-45.0671
-44.8601
-44.5272
-44.0693
-43.5112
-42.8922
-42.2555
-41.6349
-41.0444
-40.4747
-39.9032
-39.3086
-38.6835
-38.0377
-37.3939
-36.7799
-36.2186
-35.72
-35.2777
-34.8771
-34.5064
-34.1649
-33.8628
-33.614
-33.425
-33.2879
-33.1836
-33.0888
-32.9851
-32.8649
-32.7352
-32.6141
-32.5214
-32.4674
-32.4452
-32.4341
-32.4072
-32.3398
-32.2176
-32.0413
-31.8268
-31.5996
-31.3879
-31.2143
-31.0886
-31.0063
-30.9548
-30.9243
-30.9147
-30.9358
-30.9999
-31.1123
-31.2649
-31.4386
-31.6108
-31.7637
-31.8906
-31.9994
-32.1094
-32.2421
-32.4098
-32.6091
-32.8238
-33.0329
-33.2197
-33.3788
-33.5198
-33.6637
-33.8338
-34.0436
-34.2898
-34.5555
-34.8188
-35.0619
-35.2788
-35.4796
-35.6871
-35.9276
-36.219
-36.564
-36.953
-37.3717
-37.8058
-45.8538
-45.5179
-45.2971
-45.2143
-45.2654
-45.3982
-45.5303
-45.5727
-45.4511
-45.1226
-44.5911
-43.9058
-43.1417
-42.3794
-41.6828
-41.0755
-40.5251
-39.9716
-39.3624
-38.6783
-37.9388
-37.189
-36.4832
-35.8669
-35.3571
-34.9306
-34.5459
-34.1717
-33.8067
-33.4792
-33.2275
-33.0738
-33.0035
-32.9772
-32.9488
-32.8811
-32.7592
-32.5992
-32.4443
-32.3428
-32.3224
-32.3702
-32.4442
-32.4917
-32.4656
-32.3368
-32.1064
-31.805
-31.4804
-31.185
-30.9609
-30.8243
-30.7548
-30.7163
-30.6816
-30.65
-30.648
-30.7107
-30.8576
-31.0733
-31.3191
-31.5498
-31.7293
-31.8432
-31.9085
-31.9689
-32.0741
-32.2537
-32.4978
-32.7693
-33.0233
-33.2239
-33.3572
-33.4421
-33.5253
-33.6594
-33.8761
-34.165
-34.4877
-34.7965
-35.0528
-35.2412
-35.3805
-35.5194
-35.7147
-36.0038
-36.3848
-36.8326
-37.3198
-37.8272
-45.632
-45.1934
-44.9346
-44.9137
-45.1623
-45.5812
-46.0177
-46.3147
-46.3404
-46.0105
-45.3346
-44.4142
-43.3886
-42.4087
-41.6026
-41.0248
-40.58
-40.1207
-39.5243
-38.7529
-37.8551
-36.921
-36.058
-35.3619
-34.8747
-34.5233
-34.1998
-33.8242
-33.3948
-32.9865
-32.7001
-32.6027
-32.6559
-32.7743
-32.8654
-32.8557
-32.7085
-32.4564
-32.1977
-32.0474
-32.0796
-32.2576
-32.4924
-32.6827
-32.7393
-32.6025
-32.2741
-31.8168
-31.3192
-30.8793
-30.5819
-30.4632
-30.4587
-30.4727
-30.4342
-30.3427
-30.2671
-30.3004
-30.5037
-30.8384
-31.2214
-31.5625
-31.7893
-31.8658
-31.8246
-31.7638
-31.7988
-32.0048
-32.3468
-32.7398
-33.0907
-33.3247
-33.405
-33.3667
-33.3133
-33.3661
-33.6042
-33.9916
-34.4394
-34.8494
-35.1413
-35.2741
-35.2815
-35.2701
-35.3664
-35.656
-36.109
-36.6553
-37.2385
-37.8425
-45.2286
-44.6099
-44.2299
-44.2251
-44.814
-45.7391
-46.7063
-47.4476
-47.742
-47.3969
-46.4304
-45.0744
-43.57
-42.1881
-41.1938
-40.7828
-40.6561
-40.4676
-39.9384
-39.0099
-37.8242
-36.5506
-35.3929
-34.5566
-34.1968
-34.0764
-33.9288
-33.5547
-32.9528
-32.3188
-31.901
-31.9149
-32.2149
-32.6107
-32.9277
-33.0284
-32.8094
-32.3232
-31.7955
-31.4895
-31.6272
-32.0636
-32.6051
-33.0664
-33.2918
-33.1444
-32.6278
-31.8867
-31.0752
-30.3687
-29.9455
-29.9379
-30.1363
-30.3045
-30.2634
-30.0124
-29.7296
-29.6456
-29.9604
-30.5339
-31.1841
-31.7398
-32.0656
-32.0579
-31.7686
-31.4208
-31.2771
-31.5597
-32.122
-32.7709
-33.3263
-33.6464
-33.6235
-33.3125
-32.9482
-32.8055
-33.1171
-33.7308
-34.4455
-35.072
-35.4587
-35.4871
-35.2092
-34.8652
-34.7395
-35.0725
-35.6986
-36.4244
-37.1271
-37.8313
-44.5002
-43.6831
-42.9849
-42.6819
-43.982
-45.8366
-47.7205
-49.2242
-50.0647
-49.6784
-48.0876
-45.9487
-43.5752
-41.4097
-39.9456
-40.1318
-40.8216
-41.3054
-40.928
-39.6378
-37.92
-36.0141
-34.2651
-33.0658
-33.1743
-33.6694
-33.9841
-33.6137
-32.5573
-31.3402
-30.4805
-30.8158
-31.6364
-32.5611
-33.3019
-33.6621
-33.2954
-32.2501
-31.0747
-30.2933
-30.7451
-31.7186
-32.8335
-33.79
-34.3818
-34.2184
-33.305
-32.0586
-30.6801
-29.4506
-28.7109
-29.1163
-29.8575
-30.4382
-30.3948
-29.7281
-28.9062
-28.4163
-29.0447
-30.1192
-31.2828
-32.248
-32.8221
-32.6557
-31.7968
-30.7837
-30.1415
-30.7118
-31.7722
-32.9363
-33.9006
-34.4617
-34.2564
-33.335
-32.2635
-31.5904
-32.1943
-33.3242
-34.578
-35.6393
-36.2915
-36.1406
-35.2317
-34.1451
-33.4516
-34.0662
-35.144
-36.2265
-37.0129
-37.689
-42.911
-42.5849
-41.1712
-38.83
-42.3517
-45.8921
-49.2825
-51.9559
-54.1544
-53.6946
-50.5343
-47.161
-43.2811
-39.6217
-36.3209
-38.7558
-41.2841
-43.3836
-43.2323
-40.8815
-38.2871
-35.252
-32.346
-29.6919
-31.5955
-33.5226
-35.0264
-34.6606
-32.3937
-29.8469
-27.3396
-29.0183
-30.9081
-32.7769
-34.2243
-35.343
-34.7591
-32.3645
-29.7866
-27.3213
-29.112
-31.1705
-33.2904
-35.0392
-36.5593
-36.3727
-34.4621
-32.4207
-30.0709
-27.8271
-25.8277
-27.8112
-29.8099
-31.4706
-31.4239
-29.6673
-27.6048
-25.5767
-27.4869
-29.5759
-31.6674
-33.3193
-34.6447
-34.2505
-32.0468
-29.6125
-27.2596
-29.1579
-31.2732
-33.3889
-35.0554
-36.3804
-35.9202
-33.5732
-31.0051
-28.536
-30.514
-32.7387
-34.9876
-36.7952
-38.2802
-37.8854
-35.5097
-32.8587
-30.2798
-32.3925
-34.5824
-36.4543
-37.0572
-36.8819
-37.5468
-43.0528
-40.6936
-26.5356
-40.6948
-46.1637
-51.8771
-55.3719
-62.0725
-61.5998
-53.288
-49.1033
-42.6699
-37.3176
-24.4374
-37.2455
-42.3645
-48.7031
-48.7045
-42.4764
-39.2892
-34.3043
-30.0646
-19.7552
-29.9832
-33.9854
-38.7615
-38.4456
-32.6336
-28.2973
-18.1714
-26.917
-30.2103
-33.6
-35.6205
-39.4762
-38.8304
-32.7434
-28.337
-18.2213
-27.0935
-30.5342
-34.2821
-36.6182
-41.1949
-41.01
-35.8078
-33.2272
-29.3094
-25.8519
-17.2094
-26.4842
-30.2495
-34.9617
-34.9155
-30.047
-26.2539
-17.0662
-25.6714
-29.0293
-32.6848
-34.8609
-38.9437
-38.4508
-32.629
-28.3237
-18.256
-27.2913
-30.7734
-34.4881
-36.7019
-40.8694
-40.3005
-34.1296
-29.6037
-19.0773
-28.4783
-32.1177
-36.0324
-38.4152
-42.9752
-42.4822
-36.1836
-31.4679
-20.3517
-30.6071
-34.4782
-38.5087
-38.2211
-32.5975
-37.9548
-38.2583
-38.5495
-38.8252
-39.0824
-39.319
-39.5333
-39.7242
-39.8912
-40.0338
-40.1523
-40.2466
-40.3171
-40.3639
-40.3873
-37.963
-38.2701
-38.5646
-38.8431
-39.1025
-39.3408
-39.5562
-39.7477
-39.9149
-40.0576
-40.1759
-40.27
-40.3402
-40.3869
-40.4101
-37.9795
-38.294
-38.5953
-38.8794
-39.1434
-39.3849
-39.6024
-39.7951
-39.9627
-40.1053
-40.2231
-40.3167
-40.3864
-40.4327
-40.4557
-38.0045
-38.3307
-38.6425
-38.9354
-39.2062
-39.4524
-39.6729
-39.867
-40.035
-40.1771
-40.2942
-40.3868
-40.4556
-40.5012
-40.5239
-38.0382
-38.3812
-38.708
-39.0131
-39.293
-39.5453
-39.7692
-39.9647
-40.1325
-40.2736
-40.3892
-40.4802
-40.5476
-40.5921
-40.6142
-38.0813
-38.4476
-38.7945
-39.1156
-39.4067
-39.666
-39.8933
-40.0895
-40.2562
-40.3952
-40.5081
-40.5966
-40.6619
-40.7049
-40.7262
-38.135
-38.5329
-38.9064
-39.2475
-39.5518
-39.8182
-40.0479
-40.2433
-40.4071
-40.5422
-40.6511
-40.7358
-40.7979
-40.8388
-40.859
-38.2013
-38.642
-39.0502
-39.4157
-39.7342
-40.0066
-40.2364
-40.4281
-40.5862
-40.7149
-40.8176
-40.8969
-40.9548
-40.9927
-41.0114
-38.2839
-38.7833
-39.2364
-39.6304
-39.9625
-40.2373
-40.4624
-40.6458
-40.7941
-40.9131
-41.007
-41.0789
-41.1312
-41.1653
-41.1821
-38.3892
-38.9704
-39.4815
-39.9065
-40.2477
-40.5174
-40.73
-40.8979
-41.0308
-41.1357
-41.2177
-41.2801
-41.3252
-41.3546
-41.3691
-38.5269
-39.2273
-39.8124
-40.2658
-40.6043
-40.8547
-41.0421
-41.1847
-41.295
-41.3808
-41.4474
-41.4979
-41.5345
-41.5583
-41.57
-38.7101
-39.5991
-40.2745
-40.7391
-41.0481
-41.2551
-41.399
-41.5038
-41.5831
-41.6446
-41.6925
-41.7292
-41.7559
-41.7734
-41.7821
-38.9567
-40.1833
-40.9468
-41.3664
-41.5921
-41.7179
-41.7949
-41.8481
-41.8887
-41.9215
-41.9483
-41.9698
-41.986
-41.9969
-42.0023
-39.3417
-41.2303
-41.964
-42.1879
-42.2345
-42.2288
-42.2146
-42.2049
-42.2019
-42.2039
-42.2089
-42.215
-42.2208
-42.2251
-42.2275
-40.5248
-43.4305
-43.4901
-43.187
-42.9274
-42.7473
-42.6295
-42.5551
-42.5096
-42.4828
-42.4678
-42.46
-42.4563
-42.4548
-42.4544
-50.4078
-50.4183
-50.4399
-50.474
-50.5228
-50.59
-50.681
-50.8049
-50.9766
-51.223
-51.5978
-52.2253
-53.4522
-56.473
-66.2631
-50.5633
-50.5764
-50.6035
-50.6462
-50.7074
-50.7913
-50.9049
-51.0591
-51.2724
-51.577
-52.0348
-52.7747
-54.0912
-56.6973
-62.2502
-50.7096
-50.7249
-50.7564
-50.8058
-50.8761
-50.972
-51.1005
-51.2724
-51.5048
-51.8247
-52.2758
-52.9237
-53.8349
-54.8751
-54.5204
-50.8453
-50.8622
-50.8968
-50.9508
-51.0271
-51.1301
-51.266
-51.4438
-51.6764
-51.9814
-52.3803
-52.8901
-53.4888
-54.0218
-54.1161
-50.9694
-50.9873
-51.0237
-51.0804
-51.1597
-51.2654
-51.4023
-51.5771
-51.7978
-52.0729
-52.4079
-52.7947
-53.1884
-53.4733
-53.463
-51.0811
-51.0994
-51.1367
-51.1942
-51.2741
-51.3789
-51.5124
-51.6786
-51.8814
-52.1229
-52.3997
-52.6944
-52.9637
-53.1297
-53.1161
-51.1801
-51.1985
-51.2356
-51.2926
-51.371
-51.4727
-51.5998
-51.7546
-51.938
-52.1486
-52.3791
-52.6118
-52.8108
-52.911
-52.7591
-51.2665
-51.2845
-51.3208
-51.3763
-51.4518
-51.5487
-51.6681
-51.8106
-51.9758
-52.1604
-52.3572
-52.5526
-52.7264
-52.8673
-53.0698
-51.3403
-51.3577
-51.3927
-51.4459
-51.5178
-51.6091
-51.7202
-51.851
-52
-52.1639
-52.3366
-52.5084
-52.665
-52.781
-52.7472
-51.4021
-51.4187
-51.4521
-51.5026
-51.5704
-51.6558
-51.7588
-51.8786
-52.0138
-52.1613
-52.3167
-52.4747
-52.6316
-52.7988
-53.0679
-51.4523
-51.468
-51.4996
-51.5472
-51.6108
-51.6903
-51.7856
-51.8956
-52.019
-52.1532
-52.2951
-52.4417
-52.591
-52.7461
-52.9082
-51.4916
-51.5064
-51.5361
-51.5807
-51.64
-51.714
-51.802
-51.9034
-52.0166
-52.1397
-52.2705
-52.4068
-52.5465
-52.6884
-52.815
-51.5205
-51.5344
-51.5622
-51.6039
-51.6592
-51.7278
-51.8093
-51.9028
-52.0072
-52.121
-52.2423
-52.3693
-52.5005
-52.6414
-52.8558
-51.5398
-51.5528
-51.5788
-51.6176
-51.669
-51.7327
-51.8082
-51.8948
-51.9914
-52.097
-52.2101
-52.3289
-52.4477
-52.5435
-52.5025
-51.55
-51.5622
-51.5864
-51.6225
-51.6703
-51.7295
-51.7994
-51.8796
-51.9693
-52.0677
-52.1741
-52.2885
-52.411
-52.5405
-52.6638
-51.5518
-51.5631
-51.5856
-51.6193
-51.6637
-51.7186
-51.7836
-51.8579
-51.9411
-52.0327
-52.1326
-52.2425
-52.3693
-52.5418
-52.911
-51.5457
-51.5562
-51.5772
-51.6085
-51.6498
-51.7009
-51.7611
-51.8301
-51.9072
-51.9919
-52.0841
-52.1848
-52.2957
-52.4065
-52.3665
-51.5322
-51.542
-51.5616
-51.5907
-51.6292
-51.6766
-51.7326
-51.7966
-51.8679
-51.9459
-52.0297
-52.1199
-52.2223
-52.376
-52.843
-51.5119
-51.521
-51.5393
-51.5664
-51.6023
-51.6464
-51.6985
-51.758
-51.8241
-51.8957
-51.9709
-52.0464
-52.1131
-52.1281
-51.8154
-51.4851
-51.4937
-51.5107
-51.536
-51.5695
-51.6107
-51.6593
-51.7148
-51.7764
-51.8428
-51.9118
-51.9791
-52.0398
-52.1075
-52.4001
-51.4524
-51.4604
-51.4763
-51.5
-51.5312
-51.5698
-51.6154
-51.6674
-51.7254
-51.7882
-51.8536
-51.9164
-51.9616
-51.9308
-51.5403
-51.414
-51.4215
-51.4364
-51.4586
-51.4878
-51.524
-51.5668
-51.6159
-51.6711
-51.7317
-51.7971
-51.8659
-51.9363
-52.0038
-52.0584
-51.3704
-51.3774
-51.3914
-51.4121
-51.4396
-51.4736
-51.5138
-51.5603
-51.6129
-51.6718
-51.7379
-51.8143
-51.9128
-52.0857
-52.6153
-51.3218
-51.3284
-51.3415
-51.361
-51.3868
-51.4187
-51.4565
-51.5003
-51.5502
-51.6068
-51.6715
-51.7472
-51.8376
-51.9198
-51.7279
-51.2686
-51.2748
-51.2871
-51.3054
-51.3296
-51.3596
-51.3951
-51.4362
-51.483
-51.5361
-51.5971
-51.67
-51.7681
-51.9442
-52.5213
-51.211
-51.2168
-51.2284
-51.2456
-51.2684
-51.2965
-51.3298
-51.3681
-51.4114
-51.4599
-51.514
-51.5752
-51.6444
-51.6901
-51.3857
-51.1492
-51.1547
-51.1657
-51.1819
-51.2034
-51.2298
-51.2609
-51.2965
-51.3363
-51.3795
-51.4256
-51.4749
-51.537
-51.679
-52.3709
-51.0836
-51.0888
-51.0991
-51.1145
-51.1347
-51.1597
-51.1889
-51.2222
-51.2587
-51.2971
-51.3347
-51.3656
-51.3742
-51.2858
-50.6269
-51.0141
-51.0191
-51.0289
-51.0435
-51.0628
-51.0864
-51.1142
-51.1456
-51.1798
-51.2151
-51.248
-51.2718
-51.2786
-51.2886
-51.638
-50.9412
-50.9459
-50.9553
-50.9692
-50.9876
-51.0102
-51.0368
-51.067
-51.1001
-51.1346
-51.1672
-51.1898
-51.1808
-51.0555
-50.4002
-50.8647
-50.8693
-50.8783
-50.8917
-50.9094
-50.9312
-50.957
-50.9865
-51.0194
-51.0553
-51.0928
-51.1297
-51.1638
-51.1902
-51.2022
-50.785
-50.7894
-50.7981
-50.8111
-50.8282
-50.8493
-50.8745
-50.9036
-50.9368
-50.9747
-51.0182
-51.0715
-51.1522
-51.3345
-52.0144
-50.7021
-50.7064
-50.7148
-50.7274
-50.744
-50.7646
-50.7891
-50.8178
-50.8511
-50.8899
-50.9363
-50.9943
-51.0698
-51.1332
-50.8272
-50.6161
-50.6203
-50.6285
-50.6407
-50.6569
-50.677
-50.7009
-50.7289
-50.7615
-50.7996
-50.8456
-50.905
-50.996
-51.188
-51.903
-50.5271
-50.5311
-50.5392
-50.5511
-50.5669
-50.5865
-50.6098
-50.6369
-50.6681
-50.7038
-50.7449
-50.7937
-50.852
-50.8794
-50.4553
-50.4351
-50.439
-50.4469
-50.4587
-50.4742
-50.4933
-50.516
-50.5422
-50.5715
-50.6038
-50.6384
-50.6758
-50.7293
-50.8841
-51.7375
-50.3401
-50.344
-50.3518
-50.3634
-50.3787
-50.3976
-50.4198
-50.4452
-50.473
-50.5021
-50.529
-50.5467
-50.5361
-50.4035
-49.5513
-50.2422
-50.2461
-50.2538
-50.2654
-50.2806
-50.2993
-50.3214
-50.3465
-50.3738
-50.4016
-50.4254
-50.4372
-50.4277
-50.4221
-50.8393
-50.1414
-50.1453
-50.153
-50.1646
-50.1798
-50.1986
-50.2209
-50.2463
-50.2743
-50.3034
-50.3294
-50.3425
-50.3165
-50.1467
-49.3213
-50.0377
-50.0416
-50.0493
-50.0609
-50.0763
-50.0953
-50.1181
-50.1444
-50.1742
-50.2071
-50.2416
-50.275
-50.3051
-50.3262
-50.3312
-49.931
-49.9349
-49.9428
-49.9545
-49.97
-49.9894
-50.0127
-50.0401
-50.0721
-50.1094
-50.1535
-50.2097
-50.3
-50.5166
-51.3474
-49.8214
-49.8254
-49.8333
-49.8451
-49.8609
-49.8806
-49.9044
-49.9327
-49.9663
-50.0066
-50.0563
-50.1206
-50.2072
-50.2801
-49.9004
-49.7088
-49.7128
-49.7208
-49.7328
-49.7487
-49.7687
-49.7929
-49.8216
-49.8558
-49.897
-49.9481
-50.016
-50.1238
-50.3573
-51.2359
-49.5931
-49.5972
-49.6053
-49.6174
-49.6336
-49.6538
-49.6781
-49.7069
-49.7407
-49.7803
-49.8271
-49.8836
-49.9531
-49.9863
-49.4657
-49.4744
-49.4785
-49.4867
-49.499
-49.5154
-49.5358
-49.5602
-49.5888
-49.6215
-49.6582
-49.6982
-49.7424
-49.8075
-49.9994
-51.056
-49.3525
-49.3567
-49.3651
-49.3775
-49.3941
-49.4147
-49.4394
-49.4679
-49.4997
-49.5336
-49.5654
-49.5865
-49.5739
-49.4116
-48.361
-49.2275
-49.2317
-49.2402
-49.2529
-49.2698
-49.2907
-49.3158
-49.3447
-49.3767
-49.4099
-49.439
-49.4541
-49.444
-49.4403
-49.9624
-49.0992
-49.1035
-49.1122
-49.1251
-49.1423
-49.1637
-49.1895
-49.2194
-49.2529
-49.2886
-49.3213
-49.3391
-49.3098
-49.1032
-48.0822
-48.9677
-48.9721
-48.9808
-48.994
-49.0115
-49.0336
-49.0602
-49.0916
-49.1279
-49.1689
-49.2129
-49.2569
-49.2986
-49.3311
-49.3445
-48.8328
-48.8372
-48.8461
-48.8595
-48.8774
-48.9
-48.9275
-48.9605
-48.9998
-49.0466
-49.1032
-49.1762
-49.2939
-49.5717
-50.6197
-48.6945
-48.699
-48.708
-48.7216
-48.7397
-48.7627
-48.791
-48.8251
-48.8665
-48.9172
-48.9809
-49.0644
-49.1779
-49.2768
-48.8095
-48.5528
-48.5573
-48.5664
-48.5801
-48.5984
-48.6217
-48.6502
-48.6848
-48.7268
-48.7785
-48.8437
-48.9317
-49.0722
-49.3745
-50.4958
-48.4076
-48.4122
-48.4213
-48.435
-48.4534
-48.4767
-48.5052
-48.5395
-48.5806
-48.6298
-48.6892
-48.7625
-48.8542
-48.9028
-48.2519
-48.259
-48.2635
-48.2726
-48.2863
-48.3046
-48.3278
-48.356
-48.3896
-48.4288
-48.4737
-48.5238
-48.5806
-48.6662
-48.9161
-50.2732
-48.1068
-48.1114
-48.1204
-48.134
-48.1523
-48.1752
-48.2031
-48.2358
-48.2731
-48.3135
-48.3524
-48.3788
-48.3639
-48.16
-46.8228
-47.9512
-47.9557
-47.9647
-47.9782
-47.9962
-48.019
-48.0466
-48.079
-48.1155
-48.154
-48.1882
-48.2057
-48.1927
-48.1904
-48.8663
-47.7922
-47.7966
-47.8054
-47.8187
-47.8366
-47.8593
-47.8868
-47.9194
-47.9566
-47.9969
-48.0342
-48.0536
-48.0142
-47.7492
-46.4393
-47.6297
-47.634
-47.6427
-47.6558
-47.6734
-47.6958
-47.7234
-47.7566
-47.7959
-47.8413
-47.8913
-47.9424
-47.9924
-48.0329
-48.0515
-47.4639
-47.4681
-47.4765
-47.4892
-47.5065
-47.5285
-47.556
-47.5897
-47.6311
-47.6821
-47.746
-47.8321
-47.9772
-48.331
-49.6811
-47.2948
-47.2989
-47.3069
-47.3192
-47.3358
-47.3573
-47.3841
-47.4176
-47.4597
-47.5134
-47.5839
-47.6806
-47.8172
-47.9366
-47.3284
-47.1226
-47.1264
-47.1341
-47.1457
-47.1615
-47.1819
-47.2076
-47.2397
-47.2803
-47.3326
-47.4021
-47.5014
-47.6691
-48.0466
-49.4827
-46.9473
-46.9509
-46.9581
-46.9689
-46.9837
-47.0027
-47.0265
-47.0561
-47.093
-47.1393
-47.1981
-47.2748
-47.3753
-47.4209
-46.567
-46.7692
-46.7725
-46.7791
-46.789
-46.8025
-46.8198
-46.8413
-46.8676
-46.8992
-46.9368
-46.98
-47.0315
-47.1198
-47.419
-49.1353
-46.5885
-46.5914
-46.5973
-46.6062
-46.6183
-46.6337
-46.6527
-46.6754
-46.7016
-46.7298
-46.7545
-46.7626
-46.7178
-46.4325
-44.7025
-46.4053
-46.4079
-46.413
-46.4209
-46.4314
-46.4449
-46.4614
-46.4809
-46.5028
-46.5246
-46.5389
-46.5305
-46.4828
-46.4483
-47.2712
-46.2199
-46.2221
-46.2265
-46.2331
-46.2421
-46.2536
-46.2678
-46.2848
-46.3043
-46.3242
-46.3375
-46.3257
-46.2385
-45.8681
-44.1908
-46.0326
-46.0344
-46.038
-46.0434
-46.0507
-46.0602
-46.0722
-46.0872
-46.1057
-46.1278
-46.1516
-46.1734
-46.1907
-46.1947
-46.1764
-45.8436
-45.845
-45.8477
-45.8518
-45.8574
-45.8648
-45.8744
-45.8873
-45.9048
-45.9295
-45.9655
-46.0243
-46.1522
-46.5361
-48.1545
-45.6534
-45.6543
-45.6561
-45.6588
-45.6625
-45.6675
-45.6744
-45.6842
-45.6991
-45.723
-45.7617
-45.8271
-45.936
-46.0193
-45.2125
-45.462
-45.4625
-45.4633
-45.4646
-45.4663
-45.4687
-45.4721
-45.4777
-45.4875
-45.5054
-45.5378
-45.5997
-45.7374
-46.12
-47.7649
-45.2699
-45.2699
-45.2699
-45.2697
-45.2693
-45.2687
-45.2682
-45.2684
-45.2706
-45.2771
-45.2914
-45.3198
-45.3688
-45.3432
-44.2434
-45.0774
-45.077
-45.0761
-45.0745
-45.072
-45.0685
-45.0637
-45.0578
-45.0508
-45.0428
-45.0335
-45.0256
-45.0521
-45.3114
-47.1852
-44.8848
-44.884
-44.8823
-44.8794
-44.875
-44.8687
-44.8599
-44.8481
-44.8319
-44.809
-44.7726
-44.7077
-44.5735
-44.1577
-42.0971
-44.6922
-44.6912
-44.6888
-44.6849
-44.679
-44.6704
-44.6582
-44.6414
-44.618
-44.5838
-44.5296
-44.4379
-44.2906
-44.1452
-44.9203
-44.5
-44.4988
-44.496
-44.4914
-44.4844
-44.4741
-44.4596
-44.4396
-44.4117
-44.372
-44.3108
-44.2068
-44.0063
-43.4927
-41.5911
-44.3083
-44.3069
-44.304
-44.2991
-44.2916
-44.2805
-44.2648
-44.2432
-44.214
-44.1745
-44.1197
-44.0428
-43.9395
-43.8031
-43.6433
-44.117
-44.1157
-44.113
-44.1082
-44.1008
-44.0897
-44.074
-44.0524
-44.0236
-43.9869
-43.9421
-43.897
-43.8958
-44.1289
-45.5902
-43.9262
-43.9252
-43.9228
-43.9187
-43.912
-43.9019
-43.8872
-43.8666
-43.8391
-43.8042
-43.7628
-43.7207
-43.6895
-43.6008
-42.6288
-43.7357
-43.735
-43.7334
-43.7304
-43.7253
-43.717
-43.7044
-43.6858
-43.6599
-43.6254
-43.5822
-43.5368
-43.5232
-43.6852
-44.927
-43.5452
-43.545
-43.5445
-43.5431
-43.5402
-43.5349
-43.5255
-43.5104
-43.4869
-43.4519
-43.4012
-43.3307
-43.2351
-43.0188
-41.824
-43.3544
-43.3549
-43.3556
-43.3564
-43.3565
-43.3551
-43.3506
-43.3408
-43.3221
-43.2887
-43.2319
-43.1421
-43.031
-43.0308
-44.1664
-43.1628
-43.164
-43.1664
-43.1696
-43.1734
-43.1771
-43.1793
-43.1777
-43.1677
-43.1413
-43.0834
-42.9685
-42.7497
-42.2532
-40.4947
-42.97
-42.9719
-42.9759
-42.982
-42.99
-42.9998
-43.0107
-43.0205
-43.0249
-43.015
-42.9726
-42.8671
-42.6612
-42.3512
-42.4161
-42.7753
-42.778
-42.7836
-42.7924
-42.8049
-42.8216
-42.8425
-42.8671
-42.8924
-42.9106
-42.9035
-42.8355
-42.6449
-42.188
-40.9598
-42.5783
-42.5816
-42.5886
-42.5999
-42.6165
-42.64
-42.6718
-42.7134
-42.7651
-42.8232
-42.8746
-42.8892
-42.8136
-42.5594
-42.085
-42.3786
-42.3822
-42.3901
-42.4031
-42.423
-42.4522
-42.4941
-42.5529
-42.6336
-42.7398
-42.8693
-43.0056
-43.1063
-43.0828
-42.8866
-42.1758
-42.1795
-42.1875
-42.2011
-42.2226
-42.2553
-42.3045
-42.3775
-42.4846
-42.6396
-42.8573
-43.1467
-43.4853
-43.7252
-43.5042
-41.9701
-41.9733
-41.9805
-41.9931
-42.0139
-42.0468
-42.0983
-42.1784
-42.3025
-42.495
-42.7935
-43.2537
-43.9329
-44.6867
-44.0277
-41.7617
-41.764
-41.7693
-41.7791
-41.7963
-41.825
-41.8722
-41.9489
-42.0731
-42.2762
-42.6155
-43.2088
-44.3287
-46.6285
-51.702
-41.5513
-41.5521
-41.5544
-41.5596
-41.5702
-41.5901
-41.6255
-41.6864
-41.7892
-41.9622
-42.2589
-42.7983
-43.9052
-46.6432
-55.3027
-56.9256
-48.0552
-45.2218
-44.0628
-43.4879
-43.1646
-42.9702
-42.8497
-42.7744
-42.7272
-42.698
-42.6802
-42.6697
-42.6639
-42.6614
-53.6053
-48.0662
-45.6335
-44.4533
-43.8212
-43.4537
-43.2285
-43.0864
-42.9953
-42.9367
-42.8989
-42.8748
-42.8599
-42.8513
-42.8475
-44.9277
-45.9189
-45.1758
-44.463
-43.969
-43.6433
-43.4291
-43.2877
-43.1938
-43.1313
-43.0898
-43.0626
-43.0453
-43.0351
-43.0304
-44.7767
-44.975
-44.6975
-44.3207
-43.9984
-43.7548
-43.5793
-43.456
-43.3703
-43.3111
-43.2705
-43.2431
-43.2253
-43.2146
-43.2096
-44.4936
-44.3605
-44.2886
-44.1403
-43.9714
-43.818
-43.6935
-43.5984
-43.5283
-43.4776
-43.4416
-43.4166
-43.3999
-43.3897
-43.3849
-43.0573
-43.7026
-43.9331
-43.9741
-43.932
-43.8606
-43.7872
-43.7236
-43.6727
-43.6336
-43.6046
-43.5838
-43.5695
-43.5606
-43.5564
-42.4297
-43.3318
-43.7094
-43.8653
-43.9114
-43.9036
-43.8743
-43.8402
-43.8087
-43.7824
-43.7616
-43.746
-43.7349
-43.7279
-43.7245
-43.1623
-43.3244
-43.64
-43.8326
-43.9266
-43.961
-43.9647
-43.9551
-43.9411
-43.927
-43.9146
-43.9046
-43.8971
-43.8922
-43.8898
-41.8067
-43.2095
-43.6562
-43.8682
-43.9816
-44.0389
-44.0644
-44.0731