/*--------------------------------*- C++ -*----------------------------------*\
| =========                 |                                                 |
| \\      /  F ield         | OpenFOAM: The Open Source CFD Toolbox           |
|  \\    /   O peration     | Version:  5.x                                   |
|   \\  /    A nd           | Web:      www.OpenFOAM.org                      |
|    \\/     M anipulation  |                                                 |
\*---------------------------------------------------------------------------*/
FoamFile
{
    version     2.0;
    format      ascii;
    class       volScalarField;
    location    "3.5";
    object      gradTy;
}
// * * * * * * * * * * * * * * * * * * * * * * * * * * * * * * * * * * * * * //

dimensions      [0 -1 0 1 0 0 0];

internalField   nonuniform List<scalar> 
6300
(
32275.8
32227.5
32179.3
32131
32082.9
32034.8
31986.9
31939.1
31891.5
31844
31796.8
31749.8
31703
31656.5
31610.3
-0.0161452
-0.0485038
-0.0810542
-0.113882
-0.147005
-0.180348
-0.213722
-0.24681
-0.279167
-0.31025
-0.339471
-0.366297
-0.390383
-0.41172
-0.43076
-0.02683
-0.0806226
-0.134782
-0.189478
-0.244766
-0.300549
-0.356526
-0.412166
-0.466701
-0.519158
-0.56845
-0.613543
-0.653696
-0.688754
-0.719416
-0.0373871
-0.112374
-0.187968
-0.264469
-0.342022
-0.420542
-0.499649
-0.578607
-0.65629
-0.731205
-0.801599
-0.865695
-0.922071
-0.970151
-1.01073
-0.0477326
-0.143522
-0.240248
-0.338412
-0.43831
-0.539947
-0.64292
-0.746322
-0.848647
-0.947772
-1.04104
-1.12557
-1.19874
-1.25906
-1.30705
-0.0577486
-0.173721
-0.291079
-0.410604
-0.532845
-0.657995
-0.785741
-0.915087
-1.04418
-1.17016
-1.28921
-1.39675
-1.48822
-1.56023
-1.6123
-0.0672879
-0.202532
-0.339738
-0.480072
-0.62446
-0.773437
-0.926949
-1.08409
-1.24279
-1.39947
-1.54884
-1.68399
-1.79712
-1.88132
-1.93344
-0.0761592
-0.229378
-0.385265
-0.545482
-0.711477
-0.884331
-1.06451
-1.25153
-1.4434
-1.63606
-1.82267
-1.99322
-2.13491
-2.23443
-2.28262
-0.0841291
-0.253553
-0.426457
-0.605103
-0.791623
-0.987883
-1.19523
-1.41408
-1.64319
-1.87867
-2.11254
-2.33124
-2.51482
-2.63878
-2.68119
-0.090932
-0.274241
-0.461899
-0.656838
-0.862013
-1.08033
-1.31443
-1.56633
-1.83658
-2.12284
-2.41752
-2.7043
-2.95427
-3.1246
-3.16683
-0.0962879
-0.290576
-0.490048
-0.698323
-0.919249
-1.15695
-1.41581
-1.70021
-2.01392
-2.35855
-2.73034
-3.1141
-3.47327
-3.73841
-3.80738
-0.0999296
-0.301718
-0.509383
-0.727143
-0.959687
-1.2124
-1.4916
-1.80473
-2.16028
-2.56703
-3.03112
-3.54838
-4.0862
-4.5483
-4.73109
-0.101639
-0.306977
-0.518612
-0.741161
-0.979933
-1.24133
-1.53344
-1.86678
-2.25541
-2.71809
-3.27864
-3.96203
-4.77474
-5.63742
-6.20484
-0.101288
-0.305931
-0.516913
-0.73894
-0.977526
-1.23953
-1.534
-1.87349
-2.27643
-2.7712
-3.40323
-4.24628
-5.41326
-7.02174
-8.84635
-0.0988658
-0.298537
-0.504156
-0.72014
-0.951674
-1.20525
-1.48949
-1.81669
-2.20556
-2.68698
-3.3167
-4.20655
-5.61024
-8.18993
-13.9575
31568.2
31530.1
31492.2
31454.6
31417.1
31379.9
31343
31306.3
31269.9
31233.8
31198
31162.5
31127.3
31092.5
31058
31023.9
30990.1
30956.8
30923.8
30891.2
30859
30827.1
30795.6
30764.4
30733.6
30703.1
30673
30643.1
30613.5
30584.2
30555.1
30526.2
30497.5
30469.1
30440.8
30412.7
30384.7
30356.9
30329.2
30301.7
30274.2
30246.9
30219.6
30192.5
30165.5
30138.5
30111.6
30084.8
30058.1
30031.5
30004.9
29978.3
29951.8
29925.3
29898.8
29872.3
29845.8
29819.3
29792.8
29766.2
29739.5
29712.8
29686
29659.1
29632.1
29605.1
29577.9
29550.6
29523.1
29495.6
29467.9
29440
29412.1
29383.9
29355.6
29327.2
29298.5
29269.7
29240.7
29211.6
29182.2
29152.7
29122.9
29092.9
29062.7
29032.3
29001.7
28970.9
28939.8
28908.5
-0.446994
-0.461744
-0.477438
-0.495026
-0.515302
-0.538763
-0.565486
-0.595093
-0.626772
-0.659387
-0.691634
-0.722213
-0.74997
-0.773997
-0.793652
-0.808527
-0.818384
-0.823081
-0.822536
-0.816717
-0.805672
-0.789567
-0.768719
-0.743595
-0.714794
-0.683003
-0.648951
-0.613377
-0.577008
-0.540548
-0.504663
-0.469952
-0.436919
-0.405937
-0.377236
-0.350914
-0.326966
-0.30533
-0.285925
-0.268659
-0.253414
-0.240004
-0.228126
-0.21733
-0.207028
-0.196535
-0.185152
-0.172252
-0.157365
-0.140229
-0.120803
-0.0992416
-0.075853
-0.0510435
-0.0252753
0.000964937
0.0271891
0.0529329
0.0777877
0.101438
0.123692
0.144494
0.163911
0.18209
0.199204
0.215411
0.230819
0.245496
0.259494
0.272884
0.285781
0.298342
0.310737
0.323114
0.335559
0.348079
0.360611
0.373063
0.385342
0.397384
0.409149
0.420582
0.431568
0.441875
0.451135
0.45885
0.464442
0.467316
0.466936
0.46289
-0.745045
-0.768127
-0.792786
-0.820846
-0.853867
-0.89285
-0.938004
-0.988646
-1.04326
-1.0997
-1.15553
-1.20834
-1.25606
-1.29714
-1.33057
-1.35576
-1.37242
-1.3804
-1.37955
-1.36978
-1.35112
-1.32378
-1.2883
-1.24548
-1.1964
-1.14226
-1.08433
-1.02389
-0.962166
-0.90035
-0.839594
-0.780952
-0.725311
-0.673317
-0.625339
-0.581485
-0.541679
-0.505763
-0.473579
-0.445005
-0.41991
-0.398058
-0.378989
-0.361946
-0.345874
-0.329511
-0.311545
-0.290802
-0.266418
-0.237934
-0.205317
-0.1689
-0.129277
-0.0871966
-0.0434773
0.00103132
0.0454758
0.0890309
0.130957
0.170679
0.207858
0.242427
0.274558
0.304581
0.332861
0.3597
0.385275
0.409656
0.432876
0.455018
0.476273
0.496942
0.517376
0.537879
0.55862
0.579591
0.60064
0.621548
0.642128
0.662279
0.68199
0.701253
0.719952
0.737742
0.753993
0.767802
0.778091
0.783746
0.783777
0.777441
-1.04334
-1.07217
-1.10316
-1.13944
-1.18376
-1.23796
-1.30253
-1.37639
-1.45701
-1.5408
-1.62366
-1.70168
-1.77161
-1.83122
-1.87923
-1.91515
-1.93886
-1.9503
-1.94928
-1.93554
-1.90892
-1.86961
-1.81831
-1.75627
-1.68515
-1.60683
-1.52321
-1.43613
-1.34732
-1.25849
-1.17134
-1.08749
-1.00831
-0.934774
-0.86736
-0.806083
-0.750649
-0.700676
-0.65589
-0.616197
-0.581595
-0.551962
-0.526793
-0.505022
-0.485002
-0.46466
-0.441799
-0.414463
-0.381242
-0.341458
-0.295173
-0.243047
-0.186117
-0.125586
-0.0626946
0.00130951
0.065161
0.12759
0.187414
0.243693
0.295895
0.343978
0.388348
0.429684
0.468697
0.50591
0.541548
0.575585
0.607906
0.638521
0.667697
0.695969
0.724003
0.752387
0.78143
0.811072
0.84095
0.870585
0.899603
0.927882
0.955545
0.982805
1.00971
1.03589
1.06043
1.08188
1.09847
1.10834
1.10986
1.10181
-1.34282
-1.37312
-1.40595
-1.44649
-1.49947
-1.56819
-1.65372
-1.75444
-1.86627
-1.98329
-2.09884
-2.20673
-2.30213
-2.38207
-2.44541
-2.49224
-2.5231
-2.53827
-2.53748
-2.52
-2.48515
-2.43286
-2.36396
-2.28031
-2.18445
-2.07923
-1.9673
-1.85107
-1.73271
-1.61444
-1.49859
-1.38756
-1.28345
-1.18769
-1.10083
-1.02256
-0.952059
-0.888437
-0.831195
-0.780392
-0.736474
-0.699796
-0.67007
-0.645955
-0.62498
-0.603828
-0.578903
-0.54701
-0.505938
-0.454773
-0.393875
-0.324553
-0.248589
-0.167825
-0.0839711
0.00134706
0.0864308
0.169436
0.248507
0.322109
0.389392
0.450406
0.506038
0.557664
0.606659
0.653924
0.69967
0.743528
0.784943
0.82365
0.859985
0.894906
0.929702
0.965531
1.00297
1.04182
1.08122
1.12013
1.15778
1.19401
1.22933
1.26453
1.30018
1.33609
1.37101
1.40268
1.42824
1.44471
1.44949
1.44073
-1.64544
-1.67038
-1.69758
-1.73555
-1.79243
-1.87416
-1.98294
-2.11644
-2.26798
-2.4278
-2.585
-2.72971
-2.85482
-2.95676
-3.03529
-3.09225
-3.12985
-3.14917
-3.14963
-3.12939
-3.08645
-3.01994
-2.93079
-2.82184
-2.6972
-2.5612
-2.41753
-2.269
-2.11793
-1.96684
-1.81886
-1.67762
-1.54651
-1.42774
-1.32188
-1.22782
-1.14352
-1.06697
-0.997194
-0.934647
-0.880901
-0.837601
-0.805253
-0.782357
-0.765208
-0.748429
-0.726042
-0.692781
-0.645176
-0.582117
-0.504727
-0.415647
-0.318002
-0.214546
-0.107391
0.00168395
0.110653
0.216902
0.317431
0.409574
0.491863
0.564532
0.629438
0.689378
0.747051
0.804065
0.860449
0.914925
0.965818
1.01213
1.05425
1.09396
1.13385
1.17629
1.22242
1.27169
1.32215
1.37144
1.41792
1.46141
1.50324
1.54556
1.59023
1.63767
1.68621
1.73225
1.77106
1.79785
1.80859
1.80051
-1.95546
-1.96434
-1.97363
-1.99733
-2.04953
-2.14109
-2.27651
-2.4524
-2.65769
-2.876
-3.08905
-3.28085
-3.44078
-3.56507
-3.65613
-3.72005
-3.76281
-3.78714
-3.79152
-3.77134
-3.72161
-3.63952
-3.52602
-3.38587
-3.2262
-3.05411
-2.87465
-2.69048
-2.50308
-2.31462
-2.12928
-1.95299
-1.79166
-1.6491
-1.5258
-1.41891
-1.3237
-1.23564
-1.15265
-1.0761
-1.01015
-0.959508
-0.926697
-0.910355
-0.90478
-0.900978
-0.888711
-0.859078
-0.806542
-0.729968
-0.632284
-0.51895
-0.395659
-0.266471
-0.133453
0.00229392
0.13891
0.272727
0.398548
0.511349
0.608307
0.689954
0.760106
0.82447
0.88851
0.955227
1.02409
1.09159
1.1534
1.20678
1.25209
1.29285
1.33444
1.38185
1.43746
1.49995
1.56486
1.62689
1.68246
1.7313
1.77654
1.8233
1.87638
1.93774
2.0051
2.07232
2.13128
2.17417
2.19488
2.18945
-2.28145
-2.25762
-2.22885
-2.21798
-2.24983
-2.34471
-2.51169
-2.74584
-3.02853
-3.3316
-3.62352
-3.8777
-4.07786
-4.22101
-4.31585
-4.37808
-4.42207
-4.4536
-4.46851
-4.45557
-4.4031
-4.30403
-4.15933
-3.97769
-3.77276
-3.55729
-3.33818
-3.11629
-2.88937
-2.65755
-2.42631
-2.2064
-2.00935
-1.84233
-1.70565
-1.59275
-1.49311
-1.39654
-1.29836
-1.20179
-1.11688
-1.05522
-1.02391
-1.02232
-1.04127
-1.06518
-1.07584
-1.0578
-1.00195
-0.907638
-0.781786
-0.635995
-0.481209
-0.323309
-0.162838
0.00225883
0.171808
0.340679
0.499033
0.636557
0.747415
0.83255
0.899728
0.960646
1.02673
1.10391
1.1903
1.27708
1.35371
1.41363
1.45705
1.49116
1.52722
1.57615
1.64317
1.72528
1.81227
1.89216
1.95722
2.00689
2.04814
2.09242
2.15109
2.2296
2.32464
2.4247
2.51502
2.5828
2.61915
2.619
-2.64014
-2.55786
-2.45816
-2.37695
-2.35918
-2.44432
-2.64988
-2.96916
-3.36975
-3.80296
-4.21205
-4.552
-4.79671
-4.94616
-5.02213
-5.06198
-5.09881
-5.14355
-5.1851
-5.19623
-5.15114
-5.03372
-4.84523
-4.60244
-4.33389
-4.06501
-3.80506
-3.5486
-3.282
-2.99887
-2.70624
-2.42606
-2.18299
-1.99099
-1.85036
-1.74656
-1.65719
-1.5588
-1.44076
-1.30967
-1.18908
-1.10616
-1.0772
-1.1036
-1.16946
-1.24728
-1.30312
-1.30974
-1.25151
-1.12947
-0.958719
-0.764693
-0.569923
-0.382516
-0.197546
-0.00283855
0.207041
0.425139
0.630885
0.801545
0.924951
1.00239
1.04975
1.09077
1.15034
1.24074
1.3573
1.47855
1.57944
1.64561
1.67676
1.688
1.70275
1.74571
1.82844
1.9448
2.07111
2.18
2.2553
2.29575
2.3165
2.34191
2.3983
2.4987
2.63791
2.79204
2.93209
3.03755
3.09675
3.10534
-3.06343
-2.88304
-2.66068
-2.4444
-2.32017
-2.3703
-2.62406
-3.07513
-3.66372
-4.30872
-4.89983
-5.36311
-5.65237
-5.77673
-5.78
-5.7498
-5.76368
-5.83757
-5.94498
-6.01728
-6.00278
-5.86516
-5.60869
-5.26362
-4.89478
-4.55918
-4.26612
-3.99471
-3.69764
-3.353
-2.9674
-2.5914
-2.28213
-2.06472
-1.94104
-1.87856
-1.83322
-1.74827
-1.60088
-1.4013
-1.20587
-1.07819
-1.04957
-1.12677
-1.27917
-1.45971
-1.59996
-1.65372
-1.59161
-1.42003
-1.16775
-0.893009
-0.646556
-0.436713
-0.244754
-0.028255
0.23198
0.528936
0.814817
1.03615
1.17026
1.21712
1.2105
1.19577
1.23114
1.34148
1.51916
1.7109
1.85673
1.92957
1.92669
1.88133
1.83918
1.8595
1.96677
2.15149
2.3565
2.51761
2.60497
2.61432
2.57946
2.5481
2.58339
2.71316
2.93089
3.18078
3.40008
3.55993
3.64817
3.67094
-3.61097
-3.26853
-2.85436
-2.37919
-2.03
-2.00299
-2.31404
-2.98302
-3.87641
-4.89205
-5.77165
-6.42481
-6.74548
-6.78173
-6.58608
-6.37422
-6.34218
-6.48341
-6.75546
-6.96341
-7.03183
-6.86786
-6.49987
-5.95923
-5.40798
-4.99225
-4.69621
-4.47797
-4.18199
-3.76635
-3.215
-2.66091
-2.24929
-2.00376
-1.94388
-1.98621
-2.06663
-2.02803
-1.83656
-1.48741
-1.12554
-0.908054
-0.870031
-1.04213
-1.34889
-1.73069
-2.0219
-2.16513
-2.08999
-1.82746
-1.40978
-0.981264
-0.671157
-0.46584
-0.327983
-0.117346
0.203336
0.647958
1.09098
1.39561
1.54047
1.50814
1.38218
1.2279
1.20325
1.3445
1.66003
2.00866
2.23838
2.32184
2.23707
2.06935
1.88496
1.84742
1.99291
2.32833
2.70452
2.96084
3.06639
2.996
2.83682
2.65779
2.63193
2.80049
3.17711
3.61315
3.95323
4.18498
4.29339
4.34559
-4.3944
-3.75728
-3.13582
-2.13257
-1.27598
-1.14902
-1.4888
-2.568
-3.91336
-5.67161
-6.96994
-7.96578
-8.24869
-8.1213
-7.41622
-6.74045
-6.67204
-6.94177
-7.65925
-8.1115
-8.39662
-8.16559
-7.64095
-6.67151
-5.72749
-5.25455
-5.0159
-5.07484
-4.84042
-4.37695
-3.46845
-2.5273
-1.97941
-1.67766
-1.8018
-2.04138
-2.47386
-2.53048
-2.30196
-1.5946
-0.840168
-0.48249
-0.391005
-0.766747
-1.31379
-2.13546
-2.66037
-2.99455
-2.86188
-2.46201
-1.67128
-0.902913
-0.548838
-0.401864
-0.52009
-0.369024
-0.00793861
0.765081
1.56217
1.98085
2.16152
1.92967
1.59029
1.06903
0.932089
1.09221
1.74888
2.47333
2.82636
2.95209
2.66266
2.27716
1.71512
1.56768
1.74153
2.44251
3.22129
3.6174
3.77746
3.5019
3.11925
2.54348
2.39716
2.58498
3.33464
4.18067
4.65949
4.98484
5.01685
5.17284
-5.65453
-4.22346
-3.967
-1.67462
0.528926
0.3773
0.401442
-1.76952
-3.35554
-7.11324
-8.60362
-10.5331
-10.3425
-10.2924
-8.20383
-6.2317
-6.51464
-6.75503
-8.94462
-9.49996
-10.5043
-9.88574
-9.42208
-7.34669
-5.36812
-5.17896
-4.90654
-6.09369
-5.82816
-5.62783
-3.76831
-1.82673
-1.3544
-0.737676
-1.49288
-1.81817
-3.42169
-3.44291
-3.45616
-1.76884
0.017339
0.327202
0.761599
-0.243929
-0.882457
-2.96682
-3.5727
-4.4954
-4.01766
-3.65853
-1.89964
-0.227036
-0.127345
0.0449292
-1.09905
-0.922186
-0.811434
0.848533
2.57927
2.90982
3.3776
2.50708
2.06129
0.357787
0.234179
0.125937
1.74113
3.47386
3.74266
4.18118
3.22763
2.74025
0.949308
0.826354
0.732085
2.44562
4.29003
4.6148
5.11681
4.16299
3.68075
1.81174
1.68216
1.56133
3.35419
5.27773
5.5875
6.20792
5.56265
6.26615
-8.25497
-2.99806
-7.72976
-1.08858
5.72547
1.65073
5.45288
-1.81311
0.329745
-11.8196
-9.60471
-16.1533
-12.2335
-15.3988
-8.82342
-2.4753
-6.41819
-3.76105
-12.583
-10.2415
-14.9485
-11.3824
-13.5237
-7.882
-2.43154
-5.22276
-2.69488
-9.2039
-6.72148
-9.26744
-4.18575
0.990151
-0.936703
2.17856
-1.80242
0.246357
-6.64744
-4.36612
-7.05854
-2.08471
3.00146
0.958316
3.98849
-0.248849
1.63166
-5.92648
-4.028
-8.01214
-5.00184
-6.86986
-2.0029
2.71472
0.190523
2.38805
-3.57911
-1.37923
-3.84489
0.831021
5.61357
3.64216
6.52179
2.47382
4.34438
-2.62753
-0.484879
-3.32109
1.56508
6.58346
4.41552
7.4158
3.12233
5.08146
-2.21739
0.0447013
-2.87958
2.26122
7.54802
5.3579
8.55346
4.14594
6.24014
-1.42383
0.955461
-2.21712
3.18643
8.69946
6.06899
9.25435
4.1671
8.24755
-17.6509
12.6112
-27.8693
-0.751304
26.602
-8.41844
26.4426
-15.4053
24.5959
-37.2105
2.01359
-36.8478
-3.92208
-34.5319
-9.11584
16.1
-15.8259
15.7627
-32.297
-0.833257
-31.3065
-4.66076
-28.8332
-8.14225
12.3727
-12.9265
12.5296
-25.2623
-0.374345
-23.8914
-4.73938
14.0345
-7.78026
15.3128
-10.7955
15.1876
-23.0862
1.87211
-21.7012
-2.56321
16.2509
-5.71712
17.6797
-9.0645
17.7364
-22.5048
3.98653
-21.6021
1.03753
-19.7809
-1.89244
16.0834
-6.29228
16.4869
-17.8211
4.88068
-17.1637
0.658471
18.3721
-2.61253
19.6402
-6.08366
19.3591
-18.7394
5.96406
-17.8899
1.19712
20.0397
-2.35539
21.1518
-5.98823
20.7526
-19.1533
6.72992
-18.1063
1.86518
21.5714
-1.65569
22.9371
-5.23487
22.85
-19.1228
8.22225
-18.3462
2.85996
23.8468
-1.82525
24.2123
-10.431
15.8693
28873.9
28835.8
28797.4
28758.7
28719.7
28680.5
28641
28601.4
28561.6
28521.6
28481.5
28441.3
28401
28360.6
28320.2
0.454137
0.438936
0.418407
0.393193
0.36415
0.332208
0.298269
0.263125
0.227413
0.1916
0.155989
0.120735
0.0858783
0.0513688
0.0170947
0.762985
0.737329
0.702427
0.659486
0.610066
0.555841
0.498404
0.439128
0.379097
0.319081
0.259561
0.200771
0.142742
0.0853583
0.0284025
1.08171
1.04496
0.99448
0.93225
0.860775
0.782675
0.700371
0.615887
0.530768
0.44607
0.362412
0.28005
0.198963
0.118922
0.0395619
1.41511
1.36621
1.29817
1.21415
1.11801
1.01362
0.904443
0.793224
0.681976
0.571991
0.463948
0.358048
0.254136
0.151806
0.050486
1.76942
1.70656
1.61778
1.50812
1.38342
1.2493
1.11049
0.970544
0.831887
0.695938
0.563316
0.43404
0.307718
0.183675
0.0610626
2.15271
2.07285
1.95831
1.81713
1.65821
1.4896
1.31759
1.14651
0.979044
0.816528
0.65931
0.507061
0.359008
0.214106
0.0711501
2.576
2.47401
2.32561
2.14397
1.94273
1.73328
1.52365
1.31877
1.12118
0.931774
0.750305
0.575863
0.407133
0.242585
0.0805782
3.0549
2.92202
2.72652
2.49074
2.23574
1.97724
1.72493
1.48364
1.25506
1.03901
0.83423
0.638924
0.451057
0.268511
0.089151
3.61229
3.43324
3.16822
2.85724
2.53278
2.21543
1.91533
1.63578
1.37635
1.13491
0.908623
0.694505
0.489637
0.291237
0.0966588
4.28438
4.03019
3.65572
3.23722
2.82314
2.43687
2.0855
1.7679
1.47966
1.2156
0.970793
0.740792
0.521716
0.310125
0.102897
5.14195
4.74582
4.18595
3.61145
3.08535
2.6236
2.22216
1.87078
1.55879
1.27703
1.01811
0.776115
0.546283
0.324631
0.107696
6.36262
5.62578
4.73141
3.93632
3.28258
2.74994
2.30888
1.93435
1.60771
1.31561
1.04846
0.799245
0.562645
0.334407
0.110951
8.42619
6.66327
5.17907
4.11996
3.35852
2.78471
2.32914
1.95008
1.62211
1.32919
1.06082
0.80973
0.570619
0.33939
0.112645
12.4466
7.42097
5.20128
4.00574
3.24676
2.70135
2.27301
1.91478
1.60142
1.3182
1.05587
0.808194
0.570686
0.339874
0.112879
-0.0950059
-0.286732
-0.483701
-0.689758
-0.909342
-1.14787
-1.41236
-1.71244
-2.06233
-2.48463
-3.01899
-3.74367
-4.83673
-6.77213
-11.0163
-0.0901766
-0.271961
-0.458102
-0.651711
-0.856241
-1.07566
-1.31469
-1.57904
-1.87573
-2.2129
-2.59781
-3.02646
-3.43588
-3.48565
-1.5185
-0.0843511
-0.254159
-0.427304
-0.606064
-0.79278
-0.989811
-1.19939
-1.42315
-1.66098
-1.90796
-2.14623
-2.32259
-2.2847
-1.59966
0.925832
-0.0777549
-0.234033
-0.392595
-0.554878
-0.722133
-0.895225
-1.0742
-1.25744
-1.43982
-1.60902
-1.73763
-1.7675
-1.58277
-0.991799
0.0994821
-0.0706224
-0.212313
-0.355291
-0.50022
-0.647412
-0.796524
-0.946028
-1.09227
-1.22776
-1.3382
-1.39759
-1.36145
-1.1628
-0.731353
-0.0922387
-0.0631774
-0.189692
-0.316617
-0.443972
-0.571335
-0.697523
-0.820088
-0.934521
-1.03303
-1.10277
-1.12383
-1.06825
-0.904395
-0.615063
-0.22962
-0.0556183
-0.166778
-0.277631
-0.387699
-0.49605
-0.601011
-0.699762
-0.787797
-0.858224
-0.901086
-0.903233
-0.850197
-0.733072
-0.565446
-0.418213
-0.0481096
-0.144069
-0.239173
-0.332596
-0.423093
-0.508778
-0.586846
-0.653266
-0.702522
-0.727618
-0.720884
-0.676577
-0.596758
-0.501577
-0.440816
-0.0407781
-0.121943
-0.201867
-0.279501
-0.353448
-0.4218
-0.481981
-0.53062
-0.563561
-0.576208
-0.564563
-0.52753
-0.471037
-0.413722
-0.388868
-0.033715
-0.100667
-0.166134
-0.228943
-0.287657
-0.34046
-0.385093
-0.418836
-0.438657
-0.441626
-0.425817
-0.391913
-0.345812
-0.303226
-0.303887
-0.0269799
-0.0804133
-0.132227
-0.181205
-0.225936
-0.264756
-0.295724
-0.31668
-0.325416
-0.320044
-0.299577
-0.264676
-0.21807
-0.162596
-0.0855589
-0.0206064
-0.0612728
-0.10027
-0.13639
-0.168289
-0.194464
-0.213265
-0.222967
-0.221935
-0.208901
-0.183295
-0.145471
-0.0964217
-0.0368331
0.0291552
-0.0146085
-0.0432796
-0.0702928
-0.0944781
-0.11458
-0.129252
-0.137081
-0.136663
-0.126749
-0.106445
-0.0754293
-0.0339566
0.0179654
0.0845953
0.191906
-0.00898569
-0.0264258
-0.0422592
-0.0553738
-0.0646075
-0.0687509
-0.0665774
-0.0569099
-0.0387375
-0.0113882
0.0252432
0.0704124
0.122194
0.177878
0.243329
-0.00372782
-0.0106758
-0.0160932
-0.0189356
-0.0181323
-0.0125924
-0.00123047
0.0169835
0.042941
0.0772617
0.120052
0.170299
0.223764
0.264482
0.225772
0.00118157
0.00402347
0.00830559
0.0150002
0.0250914
0.0395682
0.0594075
0.0855479
0.118853
0.160069
0.209747
0.268061
0.334237
0.406343
0.494954
0.00576261
0.017735
0.0310502
0.0466076
0.0653086
0.088051
0.115721
0.149187
0.189317
0.237038
0.293511
0.360476
0.440658
0.536859
0.639561
0.0100373
0.0305266
0.0522592
0.0760625
0.102759
0.133159
0.16806
0.208251
0.254555
0.307972
0.370052
0.44383
0.536046
0.662968
0.870224
0.0140284
0.0424676
0.0720522
0.10354
0.137677
0.17519
0.21678
0.263123
0.314902
0.372934
0.438534
0.514485
0.607422
0.733411
0.92963
0.0177583
0.0536263
0.0905459
0.129209
0.170291
0.214439
0.262254
0.314274
0.370957
0.432691
0.499899
0.573456
0.65593
0.755207
0.892624
0.0212485
0.064068
0.107852
0.153231
0.200818
0.25119
0.304862
0.362242
0.423556
0.488697
0.556936
0.626353
0.692837
0.750644
0.817311
0.0245194
0.0738538
0.124072
0.175753
0.229455
0.285701
0.344949
0.407532
0.473548
0.542603
0.613236
0.681414
0.735827
0.740053
0.549958
0.0275895
0.0830395
0.1393
0.196904
0.256368
0.318179
0.382775
0.450494
0.521478
0.595461
0.671323
0.746166
0.813723
0.864523
0.914481
0.0304759
0.091676
0.15362
0.216798
0.281694
0.348776
0.41849
0.491244
0.567373
0.64706
0.730193
0.816114
0.903322
0.989713
1.07308
0.0331945
0.0998103
0.167106
0.235535
0.305547
0.377598
0.452152
0.529709
0.610846
0.69631
0.7872
0.885302
0.993585
1.11712
1.26923
0.0357602
0.107487
0.179831
0.253206
0.32803
0.404735
0.483789
0.565748
0.651368
0.741839
0.839267
0.94754
1.07335
1.22482
1.39165
0.0381878
0.114748
0.191864
0.269906
0.349252
0.430295
0.513468
0.599305
0.688576
0.78259
0.883882
0.997724
1.1354
1.32201
1.62059
0.0404918
0.121639
0.203278
0.285737
0.369342
0.454431
0.541358
0.630539
0.722546
0.818341
0.919868
1.03149
1.16357
1.34159
1.63205
0.0426868
0.128204
0.214149
0.300806
0.388449
0.477345
0.567742
0.65987
0.753939
0.850169
0.94893
1.05121
1.15992
1.28324
1.43631
0.0447872
0.134485
0.224552
0.315226
0.406734
0.499271
0.592984
0.687912
0.783883
0.880292
0.975642
1.06659
1.14621
1.20437
1.26434
0.0468068
0.140526
0.234558
0.329105
0.424349
0.520437
0.617443
0.715289
0.813575
0.911203
1.0055
1.08998
1.14746
1.12439
0.812617
0.048758
0.146363
0.244233
0.342537
0.441426
0.541023
0.641381
0.74242
0.843775
0.944473
1.04226
1.13227
1.20471
1.24503
1.27308
0.0506525
0.152032
0.253633
0.355598
0.45806
0.561136
0.664908
0.769393
0.874481
0.979806
1.08451
1.18692
1.28432
1.37432
1.46013
0.0525002
0.157561
0.262805
0.36835
0.474316
0.580824
0.688002
0.796008
0.905076
1.01561
1.12843
1.24519
1.36916
1.50666
1.67367
0.0543107
0.16298
0.271793
0.380846
0.490244
0.600103
0.710584
0.82195
0.934705
1.04989
1.16968
1.29857
1.44472
1.61864
1.80938
0.0560929
0.168314
0.280639
0.393141
0.505898
0.619007
0.732614
0.846991
0.962706
1.08101
1.20471
1.34009
1.50109
1.71909
2.07224
0.0578559
0.173589
0.289388
0.405295
0.521355
0.637621
0.754172
0.871167
0.988967
1.10844
1.2317
1.36395
1.51798
1.72583
2.07243
0.0596086
0.178835
0.298088
0.41738
0.536716
0.656091
0.775482
0.894844
1.01412
1.13329
1.25254
1.37284
1.49758
1.63638
1.80569
0.0613598
0.184077
0.306785
0.429469
0.552098
0.674607
0.796871
0.918638
1.0394
1.15815
1.27275
1.3788
1.46747
1.52589
1.58248
0.0631175
0.189341
0.315525
0.441634
0.567609
0.69335
0.818666
0.943185
1.06614
1.18593
1.29897
1.39698
1.45842
1.4168
1.01454
0.0648883
0.194646
0.324342
0.453927
0.58333
0.712442
0.841074
0.968874
1.09514
1.21843
1.33572
1.44071
1.521
1.55828
1.57641
0.0666774
0.200007
0.333261
0.466382
0.599299
0.731923
0.864121
0.995686
1.12625
1.25515
1.38108
1.50174
1.6135
1.71319
1.80461
0.0684884
0.205437
0.342298
0.479013
0.615518
0.751754
0.88767
1.02325
1.15858
1.29396
1.43018
1.56908
1.71448
1.87396
2.06699
0.0703241
0.21094
0.351461
0.491824
0.63197
0.771862
0.91151
1.05105
1.19092
1.33223
1.47748
1.63203
1.80578
2.01156
2.23528
0.0721865
0.216525
0.360758
0.504819
0.648644
0.792193
0.935483
1.07868
1.22233
1.36781
1.51841
1.68175
1.87494
2.13682
2.56454
0.0740779
0.222196
0.3702
0.518012
0.665555
0.812756
0.959575
1.10607
1.25252
1.39987
1.55057
1.71088
1.8965
2.14706
2.56749
0.0759999
0.22796
0.379799
0.531427
0.682746
0.833636
0.983953
1.13352
1.28215
1.42966
1.57614
1.72258
1.87302
2.03947
2.24316
0.0779541
0.233822
0.389566
0.545091
0.700278
0.854965
1.00891
1.16169
1.3126
1.46023
1.6018
1.73164
1.8385
1.90615
1.96953
0.0799406
0.239784
0.399509
0.559023
0.718201
0.876864
1.03471
1.19122
1.34537
1.49504
1.63569
1.7568
1.83126
1.77591
1.26909
0.0819578
0.245841
0.409622
0.57322
0.736525
0.899376
1.06151
1.22245
1.38129
1.53617
1.68323
1.81449
1.91421
1.95929
1.97937
0.084002
0.251982
0.419885
0.587652
0.755205
0.922437
1.08919
1.25519
1.42
1.58275
1.74181
1.8942
2.03517
2.16017
2.2718
0.0860675
0.258188
0.430265
0.602265
0.77415
0.945882
1.11743
1.28882
1.46019
1.63194
1.8051
1.98198
2.16729
2.37044
2.61612
0.088147
0.264438
0.440721
0.616989
0.793242
0.969501
1.14585
1.32253
1.50015
1.68018
1.86586
2.06399
2.28712
2.55128
2.83716
0.0902326
0.270707
0.451208
0.631754
0.81237
0.993106
1.17409
1.35562
1.53849
1.72454
1.91804
2.12875
2.37853
2.71717
3.2698
0.0923161
0.276969
0.461684
0.6465
0.831452
1.01659
1.20199
1.38785
1.57468
1.76377
1.95835
2.1665
2.40831
2.73459
3.27914
0.0943889
0.283201
0.472112
0.66118
0.850447
1.03993
1.22962
1.41945
1.60934
1.79922
1.98931
2.18099
2.37951
2.60055
2.87253
0.096442
0.289375
0.482451
0.675752
0.869328
1.06318
1.25719
1.45106
1.64405
1.83457
2.01923
2.19086
2.33511
2.43125
2.52419
0.0984648
0.295462
0.492655
0.69016
0.888056
1.08635
1.28492
1.48333
1.68052
1.87403
2.05825
2.21987
2.32416
2.26427
1.62597
0.100445
0.301422
0.502662
0.704324
0.90654
1.10938
1.3128
1.51649
1.71957
1.91997
2.11305
2.2888
2.42726
2.49908
2.54282
0.102367
0.307213
0.512394
0.71813
0.924625
1.13206
1.34055
1.55011
1.76052
1.97104
2.17994
2.38373
2.5767
2.75348
2.91795
0.104214
0.31278
0.521761
0.731435
0.942092
1.15403
1.3676
1.5832
1.80143
2.02325
2.25042
2.4863
2.73743
3.01651
3.35622
0.105969
0.31807
0.530663
0.744085
0.9587
1.17492
1.39327
1.61451
1.83989
2.07179
2.31489
2.57837
2.87882
3.23755
3.63192
0.107615
0.32303
0.539005
0.75593
0.974225
1.19437
1.41699
1.64297
1.87386
2.11259
2.36525
2.64486
2.97981
3.43394
4.16594
0.109135
0.32761
0.546705
0.766848
0.988494
1.21215
1.4384
1.66807
1.90241
2.14376
2.39695
2.673
2.9981
3.43746
4.16296
0.110516
0.331769
0.553693
0.776746
1.0014
1.22815
1.45749
1.68997
1.92614
2.16672
2.41285
2.66718
2.93711
3.24238
3.61433
0.111745
0.335472
0.559913
0.785554
1.01288
1.24237
1.47444
1.70933
1.94685
2.18587
2.4231
2.65064
2.8516
3.00108
3.15592
0.112812
0.338687
0.565316
0.793211
1.02289
1.25484
1.48947
1.72689
1.96655
2.20628
2.44012
2.65264
2.80188
2.75614
2.00031
0.113708
0.341386
0.569852
0.799651
1.03134
1.26549
1.50259
1.74293
1.98622
2.23081
2.47201
2.69867
2.8876
3.00438
3.09806
0.114426
0.343545
0.573477
0.804795
1.03812
1.27412
1.5135
1.75696
2.00501
2.25771
2.51403
2.77099
3.02346
3.26875
3.52279
0.11496
0.345148
0.576151
0.808564
1.04306
1.28042
1.52161
1.76782
2.02061
2.28212
2.55563
2.84651
3.16435
3.52709
3.97577
0.115312
0.346191
0.577859
0.810905
1.04603
1.2841
1.52627
1.77415
2.03016
2.29823
2.5852
2.90338
3.2741
3.72581
4.24438
0.115487
0.346694
0.57862
0.81182
1.04697
1.28496
1.52699
1.77486
2.03136
2.30123
2.59312
2.92384
3.32766
3.87818
4.75024
0.115503
0.346702
0.578507
0.811394
1.04597
1.28302
1.52369
1.7696
2.02329
2.28896
2.57411
2.89358
3.27937
3.80732
4.67879
0.115385
0.346297
0.577652
0.809812
1.04325
1.27861
1.51676
1.75896
2.00694
2.26317
2.53131
2.81734
3.13239
3.49798
3.93039
0.115171
0.345588
0.576245
0.807357
1.03922
1.27226
1.50705
1.74433
1.98487
2.22912
2.47611
2.72101
2.95032
3.14228
3.36087
0.114907
0.344717
0.574532
0.80439
1.03439
1.26472
1.49564
1.72745
1.96025
2.19317
2.4224
2.63556
2.79421
2.76815
2.03077
0.114645
0.343848
0.572795
0.801334
1.02935
1.25677
1.48361
1.7099
1.93555
2.1598
2.37987
2.58802
2.76637
2.88803
3.00913
0.114445
0.343159
0.571347
0.798652
1.02473
1.24925
1.47199
1.69282
1.91184
2.12933
2.34565
2.56122
2.7779
3.00833
3.31033
0.114367
0.34284
0.570517
0.796832
1.02119
1.24299
1.46169
1.67701
1.8892
2.09966
2.31196
2.53368
2.77991
3.07895
3.47837
0.114473
0.343077
0.570636
0.796378
1.01944
1.23888
1.45376
1.66338
1.86777
2.06874
2.27172
2.48914
2.74527
3.07989
3.53051
0.114815
0.344042
0.572019
0.797789
1.02021
1.23795
1.44949
1.65338
1.84872
2.03641
2.22148
2.41773
2.65612
3.0003
3.57474
0.115438
0.345875
0.574939
0.801525
1.02424
1.24132
1.45055
1.64932
1.835
2.0059
2.16349
2.31707
2.49352
2.76082
3.30904
0.116366
0.348662
0.579579
0.807946
1.03219
1.25016
1.45886
1.65434
1.83153
1.98464
2.10829
2.20054
2.26785
2.32625
2.34617
0.117595
0.352406
0.585989
0.817226
1.0445
1.26541
1.47636
1.67205
1.84479
1.98382
2.07491
2.10134
2.04838
1.91843
1.79857
0.119088
0.357
0.594025
0.829252
1.06122
1.28757
1.50444
1.70569
1.88146
2.01629
2.08644
2.05728
1.88237
1.5036
0.808591
0.120765
0.362207
0.603304
0.84353
1.08184
1.31628
1.54337
1.757
1.94655
2.09367
2.16695
2.11444
1.85795
1.30839
0.459004
0.1225
0.367649
0.613179
0.859126
1.10512
1.35009
1.59163
1.82501
2.04109
2.22233
2.33482
2.31327
2.03706
1.32137
0.112332
0.124132
0.37282
0.622756
0.874673
1.12911
1.38624
1.64553
1.90502
2.15983
2.39874
2.59581
2.68897
2.52135
1.67693
-0.962679
0.125466
0.377118
0.630948
0.888452
1.1512
1.42088
1.69927
1.98826
2.28963
2.60422
2.92901
3.24579
3.47557
3.27906
1.12775
0.126297
0.379898
0.636573
0.898568
1.16846
1.44943
1.74561
2.06289
2.41025
2.80269
3.26786
3.86309
4.72566
6.23829
9.62646
9.44668
5.9204
4.38834
3.53726
2.96431
2.52588
2.16215
1.84432
1.5568
1.29031
1.03881
0.798106
0.565033
0.337065
0.112035
0.516547
2.8295
3.08008
2.88464
2.59979
2.30728
2.0253
1.75652
1.4998
1.25323
1.01488
0.782972
0.555911
0.332222
0.110522
-1.62797
1.17088
2.08145
2.29404
2.24055
2.08138
1.87931
1.66034
1.43574
1.21042
0.986444
0.764459
0.544437
0.325991
0.10855
-0.302593
0.823502
1.56746
1.88817
1.95471
1.88529
1.74505
1.56808
1.37216
1.16667
0.956608
0.744567
0.531858
0.319057
0.106337
-0.179497
0.741434
1.34736
1.6588
1.7633
1.7384
1.63632
1.48896
1.3152
1.12609
0.928125
0.725124
0.519332
0.312062
0.104089
0.0973276
0.87808
1.33174
1.57314
1.66175
1.64512
1.55902
1.42818
1.26889
1.09164
0.903125
0.707609
0.507826
0.305551
0.101983
1.00971
1.24186
1.46352
1.59359
1.63329
1.60009
1.5128
1.38715
1.23505
1.06501
0.882975
0.693048
0.498044
0.299933
0.100153
1.51216
1.61292
1.65892
1.67681
1.65546
1.59264
1.49321
1.36449
1.21365
1.04669
0.868301
0.682008
0.490417
0.295474
0.0986873
2.39375
2.02203
1.87384
1.78729
1.70646
1.61061
1.49395
1.35719
1.20344
1.0363
0.859116
0.674646
0.485115
0.292295
0.0976296
2.67614
2.27592
2.04598
1.89382
1.76789
1.64304
1.50867
1.36169
1.20252
1.0329
0.85499
0.670798
0.482099
0.290398
0.0969844
2.77131
2.41157
2.16411
1.98215
1.8286
1.68207
1.53214
1.37468
1.20884
1.03528
0.855227
0.670082
0.48117
0.28969
0.0967253
2.79025
2.46929
2.23675
2.05077
1.88445
1.72347
1.56083
1.3935
1.22055
1.04216
0.859007
0.671988
0.482026
0.290016
0.096804
2.73234
2.46562
2.27708
2.10576
1.9366
1.76603
1.5928
1.41622
1.23604
1.05235
0.865483
0.675944
0.484309
0.291179
0.0971585
2.51505
2.40768