/*--------------------------------*- C++ -*----------------------------------*\
| =========                 |                                                 |
| \\      /  F ield         | OpenFOAM: The Open Source CFD Toolbox           |
|  \\    /   O peration     | Version:  5.x                                   |
|   \\  /    A nd           | Web:      www.OpenFOAM.org                      |
|    \\/     M anipulation  |                                                 |
\*---------------------------------------------------------------------------*/
FoamFile
{
    version     2.0;
    format      ascii;
    class       volScalarField;
    location    "3.5";
    object      T;
}
// * * * * * * * * * * * * * * * * * * * * * * * * * * * * * * * * * * * * * //

dimensions      [0 0 0 1 0 0 0];

internalField   nonuniform List<scalar> 
6300
(
322.758
322.275
321.793
321.311
320.829
320.349
319.87
319.392
318.916
318.442
317.969
317.499
317.032
316.567
316.104
322.758
322.275
321.792
321.31
320.828
320.348
319.868
319.39
318.914
318.439
317.967
317.497
317.029
316.564
316.102
322.758
322.275
321.791
321.308
320.826
320.345
319.865
319.387
318.91
318.435
317.962
317.492
317.024
316.558
316.096
322.758
322.274
321.79
321.306
320.823
320.342
319.861
319.382
318.905
318.429
317.956
317.485
317.016
316.55
316.087
322.757
322.272
321.787
321.303
320.82
320.337
319.855
319.375
318.897
318.421
317.946
317.475
317.005
316.539
316.076
322.757
322.271
321.785
321.299
320.815
320.331
319.848
319.367
318.888
318.41
317.935
317.462
316.992
316.525
316.061
322.756
322.269
321.782
321.295
320.809
320.324
319.84
319.357
318.876
318.397
317.921
317.447
316.976
316.508
316.043
322.756
322.267
321.778
321.29
320.802
320.315
319.83
319.345
318.863
318.382
317.904
317.428
316.956
316.487
316.022
322.755
322.264
321.774
321.284
320.795
320.306
319.818
319.332
318.847
318.365
317.884
317.407
316.933
316.463
315.998
322.754
322.262
321.769
321.278
320.786
320.296
319.806
319.317
318.83
318.345
317.862
317.382
316.906
316.435
315.969
322.753
322.259
321.765
321.271
320.777
320.284
319.792
319.301
318.811
318.322
317.836
317.353
316.874
316.401
315.934
322.752
322.256
321.76
321.264
320.768
320.273
319.778
319.283
318.79
318.297
317.807
317.319
316.836
316.36
315.893
322.751
322.253
321.754
321.256
320.758
320.26
319.762
319.265
318.767
318.271
317.775
317.282
316.792
316.31
315.84
322.75
322.25
321.749
321.249
320.748
320.248
319.747
319.246
318.745
318.243
317.741
317.24
316.741
316.247
315.768
322.749
322.247
321.744
321.242
320.739
320.235
319.732
319.227
318.722
318.215
317.707
317.197
316.684
316.169
315.663
315.683
315.302
314.924
314.547
314.173
313.801
313.432
313.065
312.701
312.34
311.982
311.627
311.275
310.927
310.582
310.241
309.904
309.571
309.241
308.915
308.592
308.274
307.958
307.647
307.339
307.034
306.732
306.433
306.137
305.843
305.552
305.263
304.977
304.692
304.409
304.128
303.848
303.57
303.293
303.017
302.743
302.47
302.197
301.926
301.655
301.386
301.117
300.849
300.582
300.315
300.049
299.783
299.518
299.253
298.988
298.723
298.458
298.193
297.927
297.661
297.395
297.127
296.859
296.591
296.321
296.05
295.778
295.505
295.23
294.955
294.678
294.399
294.12
293.838
293.555
293.271
292.984
292.696
292.406
292.114
291.821
291.525
291.227
290.928
290.626
290.322
290.016
289.707
289.397
289.084
315.68
315.299
314.921
314.544
314.17
313.798
313.428
313.061
312.697
312.336
311.977
311.622
311.27
310.922
310.577
310.236
309.899
309.565
309.235
308.909
308.587
308.268
307.953
307.642
307.334
307.029
306.728
306.429
306.133
305.84
305.549
305.26
304.974
304.689
304.407
304.126
303.846
303.568
303.291
303.016
302.741
302.468
302.196
301.924
301.654
301.385
301.116
300.848
300.581
300.314
300.048
299.783
299.517
299.253
298.988
298.723
298.458
298.193
297.928
297.662
297.396
297.128
296.86
296.592
296.322
296.051
295.779
295.506
295.232
294.957
294.68
294.401
294.122
293.84
293.557
293.273
292.987
292.699
292.409
292.117
291.824
291.528
291.23
290.931
290.629
290.325
290.019
289.71
289.4
289.087
315.674
315.293
314.914
314.537
314.163
313.791
313.421
313.053
312.689
312.327
311.968
311.613
311.26
310.912
310.567
310.225
309.888
309.554
309.224
308.898
308.576
308.258
307.943
307.632
307.324
307.02
306.719
306.421
306.125
305.833
305.542
305.254
304.968
304.684
304.402
304.121
303.842
303.564
303.287
303.012
302.738
302.465
302.193
301.922
301.651
301.382
301.113
300.846
300.579
300.312
300.047
299.781
299.516
299.252
298.988
298.723
298.459
298.194
297.929
297.663
297.397
297.13
296.863
296.594
296.325
296.054
295.783
295.51
295.236
294.96
294.684
294.405
294.126
293.845
293.562
293.277
292.991
292.704
292.414
292.122
291.829
291.534
291.236
290.937
290.635
290.331
290.025
289.717
289.406
289.093
315.665
315.284
314.905
314.528
314.153
313.78
313.409
313.041
312.676
312.314
311.954
311.598
311.245
310.896
310.551
310.209
309.871
309.537
309.208
308.882
308.56
308.242
307.928
307.617
307.31
307.006
306.706
306.408
306.114
305.822
305.532
305.245
304.959
304.676
304.394
304.114
303.835
303.558
303.282
303.007
302.733
302.46
302.188
301.917
301.647
301.378
301.11
300.842
300.575
300.309
300.044
299.779
299.515
299.251
298.987
298.723
298.459
298.195
297.93
297.665
297.4
297.133
296.866
296.598
296.329
296.058
295.787
295.515
295.241
294.966
294.689
294.411
294.132
293.851
293.569
293.284
292.999
292.711
292.422
292.13
291.837
291.542
291.245
290.945
290.644
290.34
290.034
289.726
289.415
289.103
315.653
315.272
314.892
314.515
314.139
313.766
313.395
313.026
312.66
312.296
311.936
311.579
311.225
310.875
310.529
310.187
309.849
309.515
309.185
308.86
308.538
308.22
307.907
307.597
307.291
306.988
306.688
306.392
306.098
305.807
305.519
305.232
304.948
304.665
304.384
304.105
303.827
303.55
303.274
303
302.726
302.454
302.182
301.911
301.642
301.373
301.105
300.837
300.571
300.305
300.041
299.776
299.513
299.249
298.986
298.723
298.46
298.196
297.933
297.668
297.403
297.137
296.87
296.603
296.334
296.064
295.793
295.521
295.248
294.973
294.697
294.419
294.14
293.86
293.577
293.294
293.008
292.721
292.432
292.141
291.848
291.553
291.256
290.957
290.656
290.353
290.047
289.739
289.428
289.115
315.639
315.257
314.877
314.499
314.123
313.748
313.376
313.006
312.639
312.274
311.912
311.554
311.199
310.848
310.502
310.159
309.821
309.487
309.157
308.831
308.51
308.193
307.88
307.571
307.266
306.965
306.667
306.371
306.079
305.789
305.502
305.217
304.934
304.652
304.372
304.093
303.816
303.54
303.265
302.991
302.718
302.446
302.175
301.904
301.635
301.366
301.098
300.831
300.565
300.3
300.036
299.773
299.51
299.248
298.985
298.723
298.461
298.198
297.935
297.672
297.407
297.142
296.876
296.609
296.341
296.072
295.801
295.529
295.257
294.982
294.706
294.429
294.151
293.87
293.589
293.305
293.02
292.733
292.445
292.154
291.862
291.567
291.271
290.972
290.671
290.368
290.063
289.755
289.444
289.131
315.621
315.238
314.858
314.48
314.103
313.728
313.355
312.983
312.614
312.247
311.884
311.524
311.168
310.816
310.468
310.125
309.786
309.452
309.122
308.797
308.476
308.16
307.848
307.54
307.237
306.937
306.64
306.347
306.056
305.768
305.482
305.199
304.917
304.637
304.358
304.08
303.804
303.529
303.254
302.981
302.709
302.437
302.166
301.896
301.626
301.358
301.09
300.823
300.558
300.294
300.031
299.768
299.506
299.245
298.984
298.723
298.462
298.201
297.939
297.676
297.413
297.148
296.883
296.617
296.349
296.08
295.811
295.54
295.267
294.993
294.718
294.441
294.163
293.883
293.602
293.319
293.035
292.748
292.46
292.17
291.878
291.584
291.288
290.99
290.69
290.387
290.082
289.775
289.464
289.151
315.599
315.217
314.837
314.459
314.082
313.706
313.331
312.957
312.586
312.216
311.85
311.488
311.13
310.777
310.429
310.085
309.746
309.411
309.081
308.756
308.436
308.12
307.81
307.504
307.202
306.904
306.609
306.318
306.029
305.743
305.46
305.178
304.898
304.619
304.342
304.065
303.79
303.515
303.242
302.97
302.698
302.427
302.156
301.886
301.617
301.348
301.08
300.814
300.549
300.286
300.024
299.762
299.502
299.242
298.983
298.723
298.464
298.204
297.943
297.682
297.42
297.156
296.891
296.625
296.359
296.091
295.822
295.551
295.28
295.006
294.732
294.455
294.177
293.898
293.617
293.335
293.052
292.766
292.478
292.189
291.897
291.604
291.308
291.011
290.711
290.41
290.106
289.798
289.488
289.175
315.575
315.193
314.814
314.436
314.058
313.681
313.305
312.929
312.554
312.181
311.811
311.446
311.086
310.731
310.382
310.038
309.698
309.363
309.033
308.708
308.388
308.074
307.765
307.461
307.161
306.866
306.573
306.284
305.998
305.715
305.434
305.155
304.877
304.6
304.324
304.048
303.774
303.501
303.228
302.957
302.686
302.416
302.146
301.875
301.605
301.336
301.068
300.802
300.538
300.276
300.015
299.755
299.497
299.239
298.981
298.723
298.466
298.208
297.949
297.689
297.428
297.165
296.901
296.636
296.37
296.102
295.834
295.565
295.294
295.022
294.747
294.471
294.193
293.915
293.635
293.354
293.071
292.786
292.499
292.21
291.919
291.626
291.331
291.035
290.736
290.436
290.133
289.826
289.517
289.204
315.547
315.166
314.788
314.411
314.034
313.657
313.278
312.898
312.518
312.14
311.766
311.397
311.034
310.678
310.328
309.983
309.644
309.308
308.977
308.652
308.333
308.02
307.713
307.412
307.115
306.822
306.533
306.247
305.963
305.683
305.405
305.129
304.854
304.579
304.305
304.03
303.757
303.484
303.213
302.943
302.674
302.405
302.135
301.864
301.593
301.323
301.054
300.788
300.524
300.263
300.004
299.747
299.491
299.235
298.979
298.723
298.468
298.212
297.956
297.698
297.438
297.176
296.912
296.647
296.382
296.115
295.849
295.581
295.311
295.039
294.765
294.489
294.211
293.933
293.654
293.374
293.093
292.81
292.524
292.235
291.944
291.651
291.356
291.061
290.764
290.466
290.164
289.859
289.55
289.237
315.514
315.136
314.76
314.387
314.012
313.634
313.252
312.867
312.48
312.095
311.713
311.339
310.973
310.616
310.266
309.923
309.583
309.246
308.914
308.588
308.268
307.957
307.653
307.356
307.063
306.774
306.488
306.204
305.924
305.648
305.374
305.103
304.831
304.559
304.285
304.011
303.737
303.466
303.196
302.929
302.662
302.394
302.125
301.853
301.58
301.307
301.036
300.769
300.506
300.247
299.992
299.738
299.484
299.23
298.976
298.723
298.47
298.218
297.965
297.71
297.451
297.189
296.925
296.66
296.394
296.129
295.865
295.599
295.331
295.06
294.786
294.509
294.23
293.952
293.674
293.397
293.118
292.837
292.552
292.263
291.971
291.677
291.383
291.089
290.795
290.499
290.201
289.898
289.59
289.277
315.474
315.101
314.731
314.364
313.994
313.617
313.232
312.838
312.441
312.043
311.651
311.269
310.9
310.543
310.196
309.856
309.517
309.178
308.842
308.513
308.192
307.882
307.583
307.292
307.007
306.723
306.439
306.157
305.88
305.608
305.341
305.076
304.809
304.539
304.266
303.99
303.715
303.444
303.176
302.914
302.652
302.387
302.117
301.843
301.566
301.288
301.014
300.744
300.482
300.227
299.976
299.727
299.477
299.225
298.972
298.721
298.472
298.225
297.978
297.726
297.469
297.206
296.94
296.672
296.406
296.142
295.882
295.621
295.356
295.086
294.81
294.53
294.249
293.97
293.694
293.421
293.147
292.869
292.585
292.295
292
291.704
291.409
291.117
290.828
290.538
290.243
289.943
289.636
289.324
315.426
315.06
314.698
314.344
313.986
313.611
313.222
312.816
312.402
311.981
311.574
311.18
310.808
310.454
310.118
309.788
309.449
309.107
308.761
308.425
308.1
307.793
307.5
307.222
306.949
306.669
306.388
306.103
305.827
305.56
305.305
305.052
304.792
304.525
304.249
303.97
303.688
303.415
303.15
302.897
302.645
302.385
302.117
301.837
301.554
301.264
300.983
300.709
300.449
300.198
299.958
299.72
299.473
299.222
298.966
298.715
298.47
298.234
297.996
297.749
297.495
297.228
296.957
296.681
296.413
296.151
295.9
295.649
295.388
295.119
294.839
294.554
294.265
293.983
293.709
293.446
293.182
292.909
292.627
292.333
292.033
291.728
291.431
291.141
290.862
290.583
290.294
289.997
289.69
289.38
315.361
315.016
314.652
314.33
314.004
313.624
313.24
312.803
312.374
311.9
311.479
311.058
310.693
310.337
310.032
309.731
309.386
309.043
308.663
308.323
307.982
307.685
307.394
307.146
306.9
306.619
306.341
306.035
305.763
305.495
305.266
305.04
304.782
304.524
304.236
303.954
303.647
303.375
303.107
302.878
302.652
302.393
302.133
301.838
301.549
301.229
300.942
300.655
300.402
300.153
299.938
299.723
299.475
299.226
298.95
298.702
298.456
298.242
298.029
297.784
297.536
297.256
296.981
296.679
296.41
296.145
295.917
295.691
295.431
295.169
294.874
294.585
294.268
293.986
293.708
293.47
293.233
292.961
292.687
292.378
292.074
291.74
291.443
291.148
290.895
290.643
290.355
290.067
289.747
289.449
315.261
315
314.543
314.322
314.101
313.644
313.331
312.779
312.409
311.745
311.382
310.857
310.564
310.146
309.942
309.738
309.321
309.032
308.509
308.22
307.801
307.566
307.229
307.065
306.9
306.565
306.334
305.919
305.693
305.375
305.221
305.072
304.773
304.569
304.213
303.975
303.555
303.328
303.009
302.855
302.705
302.404
302.197
301.832
301.586
301.146
300.903
300.549
300.349
300.061
299.918
299.774
299.477
299.27
298.894
298.688
298.393
298.25
298.109
297.822
297.625
297.278
297.044
296.628
296.403
296.085
295.931
295.78
295.476
295.268
294.901
294.656
294.22
293.984
293.651
293.491
293.333
293.016
292.798
292.416
292.158
291.699
291.45
291.096
290.925
290.757
290.415
290.182
289.773
289.545
288.737
288.356
287.972
287.585
287.196
286.804
286.409
286.013
285.615
285.215
284.814
284.412
284.009
283.606
283.202
288.74
288.359
287.975
287.588
287.198
286.806
286.411
286.015
285.616
285.216
284.815
284.413
284.01
283.606
283.202
288.746
288.365
287.981
287.593
287.203
286.81
286.415
286.018
285.619
285.219
284.817
284.415
284.011
283.607
283.202
288.756
288.374
287.989
287.601
287.21
286.817
286.421
286.024
285.624
285.223
284.82
284.417
284.013
283.608
283.203
288.768
288.386
288
287.612
287.22
286.826
286.429
286.031
285.63
285.228
284.825
284.42
284.015
283.609
283.203
288.784
288.401
288.015
287.625
287.233
286.837
286.439
286.039
285.638
285.234
284.83
284.424
284.018
283.611
283.204
288.803
288.42
288.033
287.642
287.248
286.851
286.452
286.05
285.647
285.242
284.836
284.429
284.021
283.613
283.204
288.827
288.443
288.054
287.662
287.266
286.867
286.466
286.062
285.657
285.251
284.843
284.434
284.025
283.615
283.205
288.855
288.47
288.079
287.685
287.287
286.886
286.482
286.076
285.669
285.26
284.851
284.44
284.029
283.618
283.206
288.888
288.501
288.109
287.712
287.311
286.907
286.5
286.092
285.682
285.271
284.86
284.447
284.034
283.621
283.207
288.927
288.538
288.143
287.742
287.337
286.93
286.52
286.109
285.697
285.283
284.869
284.454
284.039
283.624
283.208
288.974
288.582
288.182
287.776
287.367
286.955
286.542
286.127
285.712
285.296
284.879
284.462
284.044
283.627
283.209
289.03
288.633
288.226
287.814
287.399
286.982
286.565
286.146
285.728
285.309
284.889
284.47
284.05
283.63
283.21
289.101
288.694
288.276
287.855
287.433
287.01
286.588
286.166
285.744
285.322
284.9
284.478
284.056
283.633
283.211
289.199
288.766
288.33
287.897
287.466
287.038
286.611
286.185
285.76
285.335
284.911
284.486
284.061
283.637
283.212
322.748
322.244
321.74
321.235
320.73
320.225
319.718
319.211
318.702
318.191
317.678
317.16
316.633
316.09
315.504
322.747
322.242
321.736
321.229
320.723
320.215
319.707
319.197
318.686
318.172
317.654
317.131
316.599
316.049
315.465
322.746
322.239
321.732
321.224
320.716
320.207
319.696
319.185
318.671
318.155
317.634
317.109
316.576
316.032
315.478
322.746
322.237
321.729
321.219
320.71
320.199
319.687
319.174
318.658
318.14
317.618
317.092
316.561
316.023
315.48
322.745
322.235
321.725
321.215
320.704
320.192
319.679
319.164
318.647
318.128
317.606
317.08
316.55
316.016
315.48
322.745
322.234
321.723
321.211
320.699
320.186
319.671
319.155
318.638
318.118
317.595
317.07
316.541
316.01
315.479
322.744
322.232
321.72
321.208
320.694
320.18
319.665
319.148
318.63
318.109
317.587
317.062
316.535
316.006
315.476
322.744
322.231
321.718
321.205
320.69
320.176
319.66
319.142
318.623
318.103
317.58
317.056
316.529
316.001
315.472
322.743
322.23
321.716
321.202
320.687
320.172
319.655
319.137
318.618
318.097
317.575
317.051
316.525
315.997
315.469
322.743
322.229
321.715
321.2
320.685
320.168
319.651
319.133
318.614
318.093
317.571
317.047
316.521
315.994
315.465
322.743
322.228
321.713
321.198
320.682
320.166
319.649
319.13
318.611
318.09
317.568
317.044
316.519
315.992
315.464
322.743
322.228
321.712
321.197
320.681
320.164
319.647
319.128
318.608
318.088
317.566
317.042
316.518
315.991
315.464
322.742
322.227
321.712
321.196
320.68
320.163
319.645
319.127
318.607
318.086
317.565
317.042
316.517
315.992
315.464
322.742
322.227
321.711
321.195
320.679
320.162
319.644
319.126
318.606
318.086
317.564
317.042
316.518
315.993
315.467
322.742
322.227
321.711
321.195
320.679
320.162
319.644
319.126
318.606
318.086
317.565
317.043
316.519
315.995
315.468
322.742
322.227
321.711
321.195
320.679
320.162
319.644
319.126
318.607
318.087
317.566
317.045
316.522
315.997
315.471
322.742
322.227
321.711
321.195
320.679
320.162
319.645
319.127
318.608
318.089
317.569
317.047
316.525
316.001
315.477
322.742
322.227
321.712
321.196
320.68
320.163
319.646
319.129
318.61
318.091
317.571
317.051
316.529
316.006
315.481
322.742
322.227
321.712
321.197
320.681
320.164
319.648
319.131
318.613
318.094
317.575
317.055
316.534
316.012
315.491
322.743
322.228
321.713
321.197
320.682
320.166
319.65
319.133
318.615
318.097
317.579
317.059
316.539
316.018
315.497
322.743
322.228
321.714
321.199
320.684
320.168
319.652
319.136
318.619
318.101
317.583
317.064
316.545
316.025
315.506
322.743
322.229
321.715
321.2
320.685
320.17
319.655
319.139
318.623
318.106
317.588
317.07
316.551
316.031
315.511
322.743
322.229
321.716
321.202
320.687
320.173
319.658
319.143
318.627
318.11
317.593
317.076
316.557
316.037
315.515
322.743
322.23
321.717
321.203
320.69
320.176
319.661
319.146
318.631
318.115
317.599
317.082
316.564
316.045
315.526
322.744
322.231
321.718
321.205
320.692
320.179
319.665
319.151
318.636
318.121
317.605
317.089
316.572
316.054
315.533
322.744
322.232
321.72
321.207
320.695
320.182
319.669
319.155
318.641
318.127
317.612
317.097
316.581
316.064
315.547
322.744
322.233
321.721
321.209
320.698
320.185
319.673
319.16
318.647
318.133
317.619
317.105
316.59
316.074
315.556
322.745
322.234
321.723
321.212
320.701
320.189
319.677
319.165
318.653
318.14
317.627
317.113
316.6
316.086
315.574
322.745
322.235
321.725
321.214
320.704
320.193
319.682
319.171
318.659
318.147
317.635
317.122
316.609
316.097
315.584
322.745
322.236
321.726
321.217
320.707
320.197
319.687
319.176
318.665
318.154
317.643
317.131
316.619
316.107
315.598
322.746
322.237
321.728
321.219
320.71
320.201
319.692
319.182
318.672
318.162
317.651
317.14
316.628
316.117
315.605
322.746
322.238
321.73
321.222
320.714
320.206
319.697
319.188
318.679
318.169
317.66
317.149
316.638
316.126
315.611
322.746
322.239
321.732
321.225
320.718
320.21
319.703
319.195
318.686
318.177
317.668
317.159
316.648
316.137
315.626
322.747
322.241
321.735
321.228
320.722
320.215
319.708
319.201
318.694
318.186
317.678
317.169
316.659
316.149
315.636
322.747
322.242
321.737
321.231
320.726
320.22
319.714
319.208
318.701
318.194
317.687
317.18
316.671
316.162
315.654
322.748
322.243
321.739
321.235
320.73
320.225
319.72
319.215
318.709
318.203
317.697
317.191
316.684
316.176
315.666
322.748
322.245
321.741
321.238
320.734
320.23
319.726
319.222
318.717
318.212
317.707
317.202
316.696
316.191
315.688
322.749
322.246
321.744
321.241
320.739
320.236
319.733
319.229
318.726
318.222
317.718
317.213
316.709
316.205
315.7
322.749
322.248
321.746
321.245
320.743
320.241
319.739
319.237
318.734
318.231
317.728
317.225
316.721
316.218
315.718
322.75
322.249
321.749
321.248
320.748
320.247
319.746
319.245
318.743
318.241
317.739
317.236
316.733
316.23
315.727
322.75
322.251
321.752
321.252
320.753
320.253
319.753
319.253
318.752
318.251
317.75
317.248
316.746
316.242
315.735
322.751
322.253
321.754
321.256
320.757
320.259
319.76
319.261
318.761
318.261
317.761
317.26
316.759
316.256
315.753
322.751
322.254
321.757
321.26
320.763
320.265
319.767
319.269
318.771
318.272
317.773
317.273
316.772
316.271
315.765
322.752
322.256
321.76
321.264
320.768
320.271
319.775
319.278
318.781
318.283
317.785
317.286
316.787
316.287
315.788
322.753
322.258
321.763
321.268
320.773
320.278
319.782
319.287
318.791
318.294
317.797
317.3
316.803
316.304
315.803
322.753
322.26
321.766
321.272
320.779
320.285
319.79
319.296
318.801
318.306
317.81
317.314
316.819
316.323
315.83
322.754
322.262
321.769
321.277
320.784
320.291
319.798
319.305
318.811
318.318
317.823
317.329
316.834
316.34
315.845
322.755
322.264
321.772
321.281
320.79
320.298
319.807
319.315
318.822
318.33
317.837
317.343
316.85
316.357
315.868
322.755
322.265
321.776
321.286
320.796
320.306
319.815
319.324
318.833
318.342
317.85
317.358
316.865
316.372
315.878
322.756
322.268
321.779
321.291
320.802
320.313
319.824
319.334
318.845
318.354
317.864
317.372
316.88
316.387
315.889
322.757
322.27
321.783
321.295
320.808
320.321
319.833
319.345
318.856
318.367
317.878
317.388
316.897
316.404
315.911
322.757
322.272
321.786
321.3
320.814
320.328
319.842
319.355
318.868
318.381
317.893
317.404
316.914
316.423
315.927
322.758
322.274
321.79
321.305
320.821
320.336
319.851
319.366
318.881
318.395
317.908
317.421
316.933
316.444
315.955
322.759
322.276
321.793
321.311
320.828
320.345
319.861
319.377
318.893
318.409
317.924
317.438
316.952
316.465
315.974
322.759
322.278
321.797
321.316
320.835
320.353
319.871
319.389
318.906
318.423
317.94
317.456
316.972
316.489
316.009
322.76
322.281
321.801
321.321
320.842
320.362
319.881
319.401
318.92
318.438
317.957
317.475
316.992
316.511
316.029
322.761
322.283
321.805
321.327
320.849
320.37
319.892
319.413
318.933
318.453
317.973
317.493
317.012
316.532
316.057
322.762
322.286
321.809
321.333
320.856
320.379
319.902
319.425
318.947
318.469
317.99
317.511
317.031
316.551
316.071
322.763
322.288
321.813
321.339
320.864
320.388
319.913
319.437
318.961
318.485
318.008
317.53
317.051
316.57
316.084
322.764
322.291
321.818
321.344
320.871
320.398
319.924
319.45
318.976
318.501
318.025
317.549
317.072
316.593
316.113
322.764
322.293
321.822
321.35
320.879
320.407
319.935
319.463
318.991
318.517
318.044
317.569
317.094
316.616
316.133
322.765
322.296
321.826
321.357
320.887
320.417
319.947
319.476
319.006
318.535
318.063
317.591
317.117
316.643
316.169
322.766
322.298
321.831
321.363
320.895
320.427
319.959
319.49
319.021
318.552
318.082
317.612
317.142
316.67
316.193
322.767
322.301
321.835
321.369
320.903
320.437
319.97
319.504
319.037
318.57
318.102
317.635
317.167
316.7
316.238
322.768
322.304
321.84
321.376
320.911
320.447
319.983
319.518
319.053
318.588
318.122
317.657
317.192
316.727
316.263
322.769
322.307
321.844
321.382
320.92
320.457
319.995
319.532
319.069
318.606
318.143
317.679
317.216
316.754
316.299
322.77
322.31
321.849
321.389
320.928
320.468
320.007
319.546
319.085
318.624
318.163
317.701
317.239
316.777
316.315
322.771
322.312
321.854
321.395
320.937
320.478
320.02
319.561
319.102
318.643
318.183
317.723
317.263
316.8
316.332
322.772
322.315
321.859
321.402
320.945
320.489
320.032
319.575
319.118
318.661
318.204
317.746
317.287
316.827
316.367
322.773
322.318
321.863
321.409
320.954
320.499
320.045
319.59
319.135
318.68
318.225
317.77
317.313
316.855
316.391
322.774
322.321
321.868
321.416
320.963
320.51
320.057
319.605
319.152
318.699
318.247
317.794
317.34
316.886
316.433
322.775
322.324
321.873
321.422
320.972
320.521
320.07
319.62
319.169
318.719
318.268
317.818
317.368
316.917
316.461
322.776
322.327
321.878
321.429
320.98
320.532
320.083
319.634
319.186
318.738
318.29
317.842
317.396
316.951
316.512
322.777
322.33
321.883
321.436
320.989
320.542
320.096
319.649
319.203
318.757
318.311
317.866
317.422
316.98
316.539
322.777
322.333
321.888
321.443
320.998
320.553
320.108
319.664
319.219
318.775
318.332
317.889
317.448
317.009
316.578
322.778
322.335
321.892
321.449
321.006
320.563
320.121
319.678
319.236
318.794
318.352
317.911
317.472
317.033
316.595
322.779
322.338
321.897
321.456
321.015
320.574
320.133
319.692
319.252
318.812
318.372
317.933
317.494
317.055
316.612
322.78
322.341
321.902
321.463
321.023
320.584
320.145
319.707
319.268
318.83
318.392
317.955
317.518
317.081
316.646
322.781
322.344
321.907
321.469
321.032
320.595
320.158
319.721
319.284
318.848
318.411
317.976
317.541
317.105
316.667
322.782
322.347
321.911
321.476
321.041
320.605
320.17
319.735
319.3
318.865
318.431
317.997
317.564
317.132
316.704
322.783
322.35
321.916
321.483
321.049
320.615
320.182
319.748
319.315
318.882
318.449
318.017
317.586
317.157
316.726
322.784
322.353
321.921
321.489
321.058
320.626
320.194
319.762
319.33
318.899
318.468
318.037
317.608
317.182
316.763
322.785
322.355
321.926
321.496
321.066
320.636
320.206
319.776
319.346
318.915
318.485
318.056
317.628
317.203
316.781
322.786
322.358
321.931
321.503
321.075
320.647
320.218
319.79
319.361
318.932
318.503
318.074
317.646
317.221
316.802
322.787
322.361
321.935
321.51
321.083
320.657
320.231
319.804
319.376
318.948
318.52
318.091
317.662
317.235
316.811
322.788
322.364
321.94
321.517
321.092
320.668
320.243
319.818
319.392
318.966
318.538
318.108
317.677
317.246
316.816
322.789
322.367
321.946
321.524
321.102
320.679
320.256
319.833
319.409
318.983
318.556
318.126
317.693
317.257
316.819
322.79
322.37
321.951
321.531
321.111
320.691
320.27
319.849
319.426
319.003
318.576
318.147
317.711
317.268
316.818
322.791
322.374
321.956
321.538
321.12
320.702
320.284
319.865
319.445
319.023
318.599
318.171
317.735
317.284
316.803
322.792
322.377
321.961
321.546
321.13
320.714
320.298
319.882
319.464
319.046
318.625
318.201
317.769
317.323
316.836
289.337
288.836
288.376
287.932
287.495
287.062
286.632
286.203
285.775
285.347
284.92
284.493
284.067
283.64
283.213
289.369
288.871
288.407
287.959
287.518
287.082
286.649
286.218
285.787
285.358
284.929
284.5
284.071
283.643
283.214
289.346
288.884
288.428
287.98
287.538
287.101
286.665
286.232
285.8
285.368
284.937
284.506
284.076
283.645
283.215
289.342
288.891
288.442
287.997
287.556
287.117
286.681
286.245
285.811
285.378
284.945
284.513
284.08
283.648
283.216
289.341
288.897
288.454
288.011
287.571
287.132
286.695
286.258
285.823
285.388
284.953
284.519
284.085
283.651
283.217
289.339
288.903
288.465
288.025
287.585
287.146
286.708
286.27
285.833
285.397
284.961
284.525
284.089
283.653
283.218
289.343
288.912
288.476
288.038
287.599
287.159
286.721
286.282
285.844
285.406
284.968
284.531
284.093
283.656
283.219
289.355
288.924
288.489
288.051
287.612
287.173
286.733
286.293
285.854
285.415
284.975
284.536
284.097
283.658
283.219
289.368
288.939
288.504
288.066
287.626
287.186
286.745
286.305
285.864
285.423
284.983
284.542
284.101
283.661
283.22
289.395
288.958
288.52
288.081
287.641
287.2
286.758
286.316
285.874
285.432
284.99
284.548
284.105
283.663
283.221
289.412
288.977
288.538
288.097
287.656
287.213
286.771
286.327
285.884
285.44
284.997
284.553
284.109
283.666
283.222
289.441
288.998
288.556
288.114
287.671
287.228
286.783
286.339
285.894
285.449
285.004
284.559
284.113
283.668
283.223
289.459
289.018
288.575
288.131
287.687
287.242
286.797
286.351
285.904
285.458
285.011
284.564
284.117
283.67
283.223
289.487
289.039
288.594
288.149
287.703
287.257
286.81
286.363
285.915
285.467
285.018
284.57
284.121
283.673
283.224
289.501
289.058
288.613
288.167
287.72
287.272
286.824
286.375
285.925
285.476
285.026
284.576
284.126
283.675
283.225
289.516
289.078
288.634
288.186
287.738
287.288
286.838
286.387
285.936
285.485
285.033
284.581
284.13
283.678
283.226
289.549
289.103
288.656
288.206
287.756
287.304
286.852
286.4
285.947
285.494
285.041
284.587
284.134
283.68
283.227
289.573
289.129
288.679
288.227
287.774
287.321
286.867
286.412
285.958
285.503
285.048
284.593
284.138
283.683
283.228
289.618
289.159
288.703
288.248
287.793
287.337
286.881
286.425
285.969
285.512
285.056
284.599
284.142
283.685
283.228
289.643
289.186
288.728
288.27
287.812
287.354
286.896
286.438
285.98
285.522
285.063
284.605
284.146
283.688
283.229
289.681
289.214
288.752
288.291
287.831
287.371
286.911
286.451
285.991
285.531
285.071
284.611
284.151
283.69
283.23
289.702
289.238
288.775
288.312
287.85
287.388
286.926
286.464
286.003
285.541
285.079
284.617
284.155
283.693
283.231
289.734
289.263
288.797
288.333
287.869
287.405
286.941
286.478
286.014
285.55
285.087
284.623
284.159
283.696
283.232
289.749
289.284
288.818
288.353
287.887
287.422
286.956
286.491
286.025
285.56
285.094
284.629
284.164
283.698
283.233
289.765
289.305
288.84
288.373
287.906
287.438
286.971
286.504
286.036
285.569
285.102
284.635
284.168
283.701
283.234
289.798
289.33
288.862
288.393
287.924
287.455
286.986
286.517
286.048
285.579
285.11
284.641
284.172
283.703
283.234
289.82
289.355
288.885
288.414
287.943
287.471
287
286.53
286.059
285.588
285.117
284.647
284.176
283.706
283.235
289.862
289.383
288.908
288.435
287.961
287.488
287.015
286.542
286.07
285.597
285.125
284.653
284.18
283.708
283.236
289.885
289.408
288.931
288.455
287.979
287.504
287.029
286.555
286.081
285.607
285.132
284.659
284.185
283.711
283.237
289.919
289.434
288.953
288.475
287.997
287.52
287.044
286.567
286.091
285.616
285.14
284.664
284.189
283.713
283.238
289.938
289.456
288.974
288.494
288.015
287.536
287.058
286.58
286.102
285.625
285.147
284.67
284.193
283.716
283.239
289.965
289.477
288.994
288.512
288.031
287.551
287.071
286.592
286.113
285.634
285.155
284.676
284.197
283.718
283.239
289.978
289.495
289.012
288.53
288.048
287.566
287.085
286.604
286.123
285.642
285.162
284.681
284.201
283.72
283.24
289.991
289.513
289.031
288.548
288.064
287.581
287.098
286.616
286.133
285.651
285.169
284.687
284.205
283.723
283.241
290.018
289.534
289.05
288.565
288.08
287.596
287.111
286.627
286.143
285.66
285.176
284.692
284.209
283.725
283.242
290.037
289.554
289.069
288.582
288.096
287.61
287.124
286.639
286.153
285.668
285.183
284.698
284.213
283.728
283.243