/*--------------------------------*- C++ -*----------------------------------*\
| =========                 |                                                 |
| \\      /  F ield         | OpenFOAM: The Open Source CFD Toolbox           |
|  \\    /   O peration     | Version:  5.x                                   |
|   \\  /    A nd           | Web:      www.OpenFOAM.org                      |
|    \\/     M anipulation  |                                                 |
\*---------------------------------------------------------------------------*/
FoamFile
{
    version     2.0;
    format      ascii;
    class       volScalarField;
    location    "0.8";
    object      gradTy;
}
// * * * * * * * * * * * * * * * * * * * * * * * * * * * * * * * * * * * * * //

dimensions      [0 -1 0 1 0 0 0];

internalField   nonuniform List<scalar> 
6300
(
32270.2
32210.7
32151.3
32092.1
32033.1
31974.4
31916.1
31858.2
31800.9
31744.2
31688.1
31632.8
31578.3
31524.6
31471.9
-0.0499395
-0.150033
-0.250765
-0.352486
-0.455417
-0.559613
-0.664915
-0.7709
-0.876855
-0.981782
-1.08444
-1.18346
-1.27749
-1.36541
-1.44657
-0.0829822
-0.249336
-0.416825
-0.586086
-0.757552
-0.931374
-1.10733
-1.28474
-1.46242
-1.63865
-1.81126
-1.97776
-2.13569
-2.28294
-2.41825
-0.115622
-0.347474
-0.581083
-0.817445
-1.05729
-1.30095
-1.54823
-1.79825
-2.04937
-2.29908
-2.5441
-2.78056
-3.00448
-3.21236
-3.40198
-0.147654
-0.443827
-0.742531
-1.04524
-1.35312
-1.6668
-1.98625
-2.31052
-2.63755
-2.96403
-3.28532
-3.59574
-3.88912
-4.15982
-4.40401
-0.178813
-0.537622
-0.89992
-1.26781
-1.64304
-2.02676
-2.41931
-2.81988
-3.22615
-3.63399
-4.03723
-4.42777
-4.79628
-5.13362
-5.43311
-0.208765
-0.627869
-1.05163
-1.48294
-1.92433
-2.37774
-2.84418
-3.32333
-3.81295
-4.30832
-4.80159
-5.28157
-5.73431
-6.14499
-6.50154
-0.23713
-0.713411
-1.19571
-1.68788
-2.19348
-2.71552
-3.25615
-3.81608
-4.39379
-4.98451
-5.57895
-6.16231
-6.71408
-7.2101
-7.62818
-0.263457
-0.792886
-1.32984
-1.87928
-2.44602
-3.03453
-3.64862
-4.29082
-4.96137
-5.65667
-6.36707
-7.07426
-7.74914
-8.3526
-8.84317
-0.287251
-0.864774
-1.45139
-2.05326
-2.67662
-3.32776
-4.01276
-4.73696
-5.50391
-6.31337
-7.15797
-8.018
-8.85498
-9.60723
-10.1965
-0.308001
-0.927501
-1.55758
-2.20558
-2.87925
-3.58691
-4.33744
-5.14005
-6.00357
-6.93452
-7.93292
-8.98413
-10.0447
-11.0239
-11.7747
-0.32523
-0.979578
-1.64573
-2.33206
-3.04771
-3.80298
-4.60976
-5.48191
-6.43542
-7.4877
-8.6544
-9.94007
-11.3151
-12.6678
-13.7348
-0.338546
-1.01977
-1.71359
-2.42906
-3.17634
-3.9673
-4.81643
-5.74205
-6.76804
-7.92586
-9.25617
-10.8058
-12.6068
-14.5966
-16.3866
-0.347703
-1.0473
-1.75967
-2.4941
-3.26108
-4.0732
-4.94631
-5.90147
-6.96833
-8.1909
-9.6378
-11.4193
-13.7088
-16.7244
-20.3708
-0.352644
-1.06196
-1.78358
-2.5264
-3.30048
-4.11789
-4.99383
-5.9488
-7.01238
-8.23092
-9.68402
-11.524
-14.0838
-18.2207
-26.6224
31424.5
31382.1
31340.4
31299.5
31259.4
31220.1
31181.7
31144.1
31107.4
31071.5
31036.6
31002.6
30969.6
30937.5
30906.3
30876.1
30846.9
30818.5
30791.1
30764.7
30739.1
30714.4
30690.5
30667.5
30645.3
30623.8
30603
30583
30563.6
30544.9
30526.7
30509.1
30491.9
30475.3
30459.1
30443.3
30427.8
30412.7
30397.8
30383.2
30368.8
30354.5
30340.4
30326.4
30312.5
30298.6
30284.7
30270.7
30256.7
30242.5
30228.2
30213.6
30198.9
30183.8
30168.5
30152.8
30136.7
30120.2
30103.2
30085.7
30067.7
30049.1
30029.9
30010
29989.5
29968.2
29946.2
29923.4
29899.8
29875.4
29850.1
29823.9
29796.9
29768.9
29740
29710.1
29679.3
29647.6
29614.8
29581.1
29546.5
29510.8
29474.2
29436.7
29398.2
29358.8
29318.5
29277.3
29235.3
29192.4
-1.51473
-1.57232
-1.62609
-1.67672
-1.72486
-1.77095
-1.8151
-1.85705
-1.89611
-1.93132
-1.96156
-1.98573
-2.0029
-2.0124
-2.01385
-2.00714
-1.99236
-1.96973
-1.93954
-1.90212
-1.85785
-1.80717
-1.75061
-1.68875
-1.62224
-1.55177
-1.47802
-1.40164
-1.32324
-1.24339
-1.16258
-1.08128
-0.999841
-0.918569
-0.837669
-0.757269
-0.677433
-0.598179
-0.519499
-0.441367
-0.363743
-0.286561
-0.209714
-0.133051
-0.0563771
0.0205335
0.0979086
0.175949
0.254802
0.334539
0.415154
0.496563
0.57862
0.661126
0.743841
0.826495
0.908788
0.990405
1.07103
1.15035
1.2281
1.30401
1.37787
1.44945
1.51849
1.58471
1.6478
1.70739
1.76315
1.81476
1.86196
1.90453
1.94227
1.97498
2.00241
2.02433
2.04047
2.05063
2.0547
2.05265
2.04458
2.03056
2.01066
1.98481
1.9528
1.91431
1.86894
1.81636
1.75635
1.68892
-2.53121
-2.62626
-2.71476
-2.79811
-2.87762
-2.95425
-3.02829
-3.09926
-3.16589
-3.22634
-3.27849
-3.32026
-3.34996
-3.3664
-3.36901
-3.35769
-3.33272
-3.29455
-3.2437
-3.18074
-3.10626
-3.02099
-2.92578
-2.82165
-2.70973
-2.59121
-2.46727
-2.33901
-2.20746
-2.07358
-1.93821
-1.80212
-1.66594
-1.53017
-1.39515
-1.26106
-1.12799
-0.995928
-0.864849
-0.734712
-0.605464
-0.477011
-0.349192
-0.22175
-0.0943348
0.0334699
0.162092
0.29191
0.423199
0.556089
0.690563
0.826463
0.963524
1.1014
1.23968
1.37789
1.51553
1.65205
1.78689
1.91953
2.04949
2.17636
2.29981
2.41948
2.53499
2.64587
2.75154
2.8514
2.94481
3.03124
3.11025
3.18151
3.24473
3.29959
3.34572
3.38263
3.40986
3.42698
3.43377
3.43026
3.41665
3.39322
3.36016
3.31742
3.26461
3.20109
3.12604
3.03873
2.9387
2.82589
-3.5588
-3.68973
-3.81103
-3.92521
-4.03476
-4.14152
-4.24617
-4.348
-4.44486
-4.53362
-4.61065
-4.67249
-4.71639
-4.74063
-4.74451
-4.7282
-4.69239
-4.63791
-4.56561
-4.47622
-4.37051
-4.2494
-4.11408
-3.96604
-3.807
-3.63872
-3.46297
-3.28133
-3.09528
-2.90612
-2.71509
-2.52328
-2.33163
-2.14086
-1.95143
-1.76354
-1.57721
-1.39237
-1.20894
-1.02686
-0.846106
-0.666602
-0.488166
-0.310434
-0.13286
0.0452367
0.224575
0.405792
0.589342
0.775429
0.964003
1.15479
1.34737
1.54122
1.73574
1.93027
2.12406
2.31629
2.50613
2.69276
2.87553
3.05388
3.22742
3.39575
3.55842
3.71477
3.86394
4.00495
4.13681
4.25869
4.37
4.47036
4.5595
4.63708
4.70257
4.7552
4.79408
4.81848
4.82799
4.8227
4.80314
4.77002
4.72388
4.66478
4.59212
4.50472
4.40105
4.27969
4.13967
3.98075
-4.60293
-4.76687
-4.91736
-5.05882
-5.19578
-5.33171
-5.46807
-5.60384
-5.73551
-5.8578
-5.96469
-6.05057
-6.11119
-6.14421
-6.14913
-6.12686
-6.07898
-6.00703
-5.9122
-5.79529
-5.65702
-5.49835
-5.32079
-5.12639
-4.91763
-4.6971
-4.46723
-4.23013
-3.98765
-3.74147
-3.49318
-3.24429
-2.99614
-2.74972
-2.50557
-2.26384
-2.02437
-1.78688
-1.55117
-1.31718
-1.08501
-0.854719
-0.62618
-0.398941
-0.172185
0.0551745
0.284315
0.516283
0.751803
0.991166
1.23423
1.48053
1.72939
1.98008
2.2318
2.48372
2.73483
2.984
3.22997
3.47159
3.70792
3.93835
4.16252
4.3802
4.59096
4.794
4.98809
5.17167
5.34318
5.50137
5.6455
5.77535
5.8909
5.99198
6.07794
6.14753
6.19917
6.23141
6.2435
6.23569
6.20917
6.16557
6.10627
6.03168
5.94088
5.83176
5.70153
5.54754
5.36789
5.16196
-5.6713
-5.86334
-6.03662
-6.19888
-6.35827
-6.52128
-6.6909
-6.86567
-7.03979
-7.20434
-7.3492
-7.46523
-7.54597
-7.58847
-7.59314
-7.56267
-7.50047
-7.40934
-7.29083
-7.1454
-6.97317
-6.77479
-6.552
-6.30768
-6.04549
-5.76921
-5.48215
-5.18692
-4.8856
-4.58008
-4.27234
-3.96447
-3.65838
-3.35548
-3.05642
-2.76107
-2.46883
-2.17897
-1.89102
-1.60501
-1.32131
-1.0404
-0.762395
-0.486804
-0.212415
0.0625253
0.339974
0.621665
0.908748
1.2016
1.49986
1.80264
2.10887
2.41753
2.7277
3.03845
3.34856
3.65644
3.96024
4.2582
4.54899
4.83198
5.10717
5.37479
5.63479
5.88632
6.12756
6.35597
6.56891
6.76446
6.94178
7.10113
7.24332
7.36885
7.47706
7.5659
7.63236
7.67352
7.68783
7.6758
7.63996
7.5839
7.51084
7.42207
7.3162
7.18935
7.03639
6.85244
6.63408
6.37997
-6.77463
-6.98652
-7.17143
-7.34275
-7.51519
-7.70093
-7.90592
-8.12809
-8.35756
-8.57896
-8.775
-8.93053
-9.03563
-9.08706
-9.08763
-9.04404
-8.96351
-8.85101
-8.70818
-8.53404
-8.32694
-8.08639
-7.81423
-7.51472
-7.19367
-6.85688
-6.50887
-6.15254
-5.78966
-5.42195
-5.05177
-4.68214
-4.31611
-3.95581
-3.60198
-3.2539
-2.90994
-2.56836
-2.22818
-1.88956
-1.55367
-1.22195
-0.895201
-0.572993
-0.253492
0.0662177
0.389483
0.719241
1.05734
1.40421
1.75894
2.11976
2.48483
2.85277
3.22276
3.59408
3.96547
4.33474
4.69892
5.05509
5.40125
5.73683
6.06268
6.3803
6.69074
6.99338
7.28543
7.56241
7.81958
8.05366
8.26376
8.45146
8.61959
8.77045
8.90385
9.0163
9.10174
9.15407
9.16985
9.14996
9.09961
9.02648
8.93778
8.83685
8.72147
8.58429
8.41562
8.20667
7.95152
7.64786
-7.92988
-8.14802
-8.32522
-8.48433
-8.65222
-8.852
-9.09527
-9.37901
-9.68595
-9.98914
-10.2582
-10.4675
-10.6017
-10.658
-10.6449
-10.5778
-10.4718
-10.3357
-10.1699
-9.9695
-9.72827
-9.44292
-9.1153
-8.7523
-8.36405
-7.96027
-7.54719
-7.1272
-6.70032
-6.26706
-5.83009
-5.39436
-4.96531
-4.5466
-4.13904
-3.74059
-3.34743
-2.9556
-2.56294
-2.17004
-1.77991
-1.39625
-1.0214
-0.655226
-0.294827
0.0648235
0.429665
0.804803
1.1933
1.59548
2.00919
2.4307
2.85656
3.28496
3.71578
4.14949
4.58532
5.0202
5.44896
5.86621
6.2685
6.65543
7.02974
7.39583
7.75755
8.11528
8.46457
8.79689
9.10298
9.37679
9.6174
9.82929
10.02
10.1964
10.3601
10.5047
10.6179
10.6864
10.7023
10.667
10.5911
10.4905
10.3813
10.2715
10.1571
10.0236
9.85188
9.62645
9.33786
8.98299
-9.16522
-9.36759
-9.50411
-9.61227
-9.74222
-9.93926
-10.225
-10.595
-11.0182
-11.4468
-11.8257
-12.1112
-12.2784
-12.3274
-12.2784
-12.166
-12.0222
-11.8614
-11.6802
-11.4624
-11.1919
-10.8591
-10.4661
-10.0251
-9.55577
-9.07605
-8.59454
-8.11091
-7.61936
-7.11675
-6.60586
-6.09625
-5.59899
-5.12071
-4.66244
-4.21916
-3.78255
-3.34358
-2.89764
-2.44615
-1.99651
-1.55759
-1.13485
-0.728944
-0.334921
0.0560803
0.455113
0.871188
1.30958
1.77016
2.24813
2.7353
3.22451
3.7135
4.20443
4.70162
5.20627
5.71415
6.21524
6.69848
7.15741
7.5917
8.00804
8.417
8.82943
9.24858
9.66733
10.0682
10.4319
10.7467
11.0113
11.2364
11.4397
11.6395
11.8421
12.0371
12.1971
12.2926
12.3069
12.241
12.1162
11.9653
11.8241
11.7107
11.6187
11.516
11.3637
11.1354
10.8179
10.4098
-10.5297
-10.6809
-10.7226
-10.7077
-10.7346
-10.8979
-11.2323
-11.7335
-12.3413
-12.9752
-13.5265
-13.9239
-14.1242
-14.1367
-14.002
-13.7984
-13.5962
-13.4155
-13.2424
-13.0303
-12.7443
-12.3612
-11.8854
-11.3381
-10.7617
-10.1938
-9.64436
-9.10545
-8.55383
-7.9779
-7.37934
-6.77996
-6.20491
-5.66564
-5.16392
-4.68782
-4.22081
-3.74136
-3.24011
-2.7194
-2.19748
-1.69544
-1.22389
-0.785438
-0.370587
0.0358192
0.456046
0.905439
1.39392
1.91978
2.4738
3.03693
3.59271
4.13917
4.68393
5.24287
5.82235
6.4177
7.00697
7.56551
8.08152
8.55348
8.99656
9.43273
9.89114
10.3819
10.8952
11.3925
11.8306
12.188
12.4611
12.6741
12.8634
13.0776
13.3342
13.6184
13.8681
14.0146
14.0257
13.8988
13.6775
13.4248
13.2254
13.1178
13.0944
13.0786
12.9838
12.7716
12.4273
11.9648
-12.1117
-12.1506
-12.0218
-11.742
-11.5298
-11.6098
-11.9993
-12.7185
-13.6274
-14.6227
-15.4494
-16.0207
-16.2409
-16.1585
-15.8254
-15.4293
-15.1397
-14.9594
-14.8616
-14.7051
-14.4374
-13.9976
-13.4083
-12.6939
-11.956
-11.2857
-10.6797
-10.119
-9.52398
-8.87233
-8.15467
-7.42928
-6.75991
-6.15707
-5.62904
-5.14395
-4.67747
-4.17105
-3.61108
-2.9948
-2.37023
-1.78973
-1.26557
-0.808214
-0.394346
-0.0045838
0.414755
0.883211
1.42428
2.02873
2.68629
3.34916
3.97434
4.56738
5.14313
5.75463
6.41575
7.13013
7.84315
8.494
9.06926
9.55708
9.99524
10.4167
10.9065
11.4828
12.1465
12.8023
13.3456
13.7512
13.9975
14.1463
14.2515
14.4549
14.7867
15.2497
15.6881
15.9316
15.9435
15.6927
15.2841
14.8081
14.4948
14.4038
14.5596
14.7555
14.7733
14.5984
14.2076
13.7019
-14.0781
-13.8614
-13.5376
-12.6784
-11.9034
-11.8744
-12.2903
-13.429
-14.7875
-16.5119
-17.7384
-18.6221
-18.7921
-18.5398
-17.7385
-16.9058
-16.5246
-16.3832
-16.5643
-16.5392
-16.3773
-15.8485
-15.1104
-14.0828
-13.0523
-12.2843
-11.6494
-11.1814
-10.5751
-9.86133
-8.94067
-7.99753
-7.21872
-6.54046
-6.03202
-5.57296
-5.19137
-4.67761
-4.06289
-3.28192
-2.47936
-1.80275
-1.21092
-0.768261
-0.383291
-0.0874995
0.302792
0.756453
1.36336
2.06117
2.89112
3.71557
4.40218
5.02038
5.55073
6.19485
6.93231
7.84438
8.76866
9.53109
10.1826
10.6319
11.0177
11.3017
11.7968
12.4574
13.4085
14.3735
15.0578
15.5433
15.6732
15.6803
15.4972
15.6462
16.049
16.9153
17.7875
18.1808
18.2382
17.7124
16.9864
15.9556
15.4425
15.333
15.9653
16.6873
16.8388
16.7348
16.1518
15.7036
-16.8053
-15.7255
-15.8234
-13.4925
-11.2013
-11.4971
-11.5391
-13.8215
-15.419
-19.1164
-20.5196
-22.2494
-21.95
-21.7102
-19.6951
-17.7306
-17.563
-17.3413
-18.563
-18.569
-18.8447
-17.9997
-17.2285
-15.475
-13.7699
-13.0904
-12.378
-12.4422
-11.7806
-11.1476
-9.75849
-8.32865
-7.5322
-6.67885
-6.36347
-5.89006
-5.8953
-5.32923
-4.75389
-3.59987
-2.40686
-1.69342
-0.941235
-0.645068
-0.243669
-0.306416
0.0996399
0.409018
1.17155
1.90331
3.10384
4.28048
4.9285
5.59983
5.7944
6.50056
7.19725
8.54091
9.92704
10.7276
11.5872
11.7976
12.1864
11.8822
12.4483
13.013
14.6496
16.3482
17.0558
17.8463
17.5247
17.4872
16.2633
16.4709
16.6422
18.571
20.5748
20.9122
21.3709
20.0188
19.1258
16.356
15.8072
15.1924
17.2402
19.4389
19.2705
19.5591
17.9003
18.1894
-21.6338
-15.8915
-21.6054
-14.2477
-6.77266
-11.4839
-7.56084
-15.1996
-13.0256
-25.0236
-22.8298
-28.798
-25.0214
-27.4366
-21.5785
-15.9671
-18.6788
-16.2204
-22.312
-20.2101
-22.9258
-20.0447
-20.7613
-16.7974
-13.0104
-13.944
-11.9884
-14.7483
-12.945
-13.523
-10.635
-7.74777
-7.9277
-6.04258
-6.92262
-5.51801
-7.42213
-5.99442
-6.27843
-3.9741
-1.64386
-1.63993
-0.0148755
-0.673453
0.564274
-1.20057
0.0355439
-0.591182
1.02391
1.07025
3.3509
5.60666
5.42127
6.86591
5.30132
6.81986
6.53051
9.17629
11.9287
11.8394
13.9265
12.7064
14.353
11.2091
13.1017
12.0245
15.8014
19.7496
18.934
21.7504
18.9668
21.0019
14.9673
17.3471
14.7039
20.1179
25.7608
23.4682
27.1103
21.6631
23.9671
13.5571
16.2659
11.2167
18.2968
25.598
21.0433
25.1865
16.8432
22.3164
-36.3826
0.441258
-46.2088
-15.1703
15.2059
-23.9025
13.0685
-30.7059
9.77724
-51.3651
-13.385
-49.3773
-19.1746
-45.0749
-23.105
-2.21678
-27.2377
-2.78629
-37.8582
-14.9129
-35.0654
-16.9081
-31.0331
-17.8644
-5.4524
-18.957
-4.80762
-23.6248
-10.6799
-20.8892
-11.5101
-2.74948
-11.2964
-1.42393
-10.7713
-0.380971
-13.7467
-4.19459
-11.5302
-4.38545
2.46938
-3.9206
4.20024
-3.43233
5.69612
-6.41616
2.65387
-4.8198
3.13512
-2.98042
3.63373
10.4482
3.56679
12.4653
0.368325
9.74233
1.63687
9.65794
18.0224
9.81685
21.0283
9.48683
23.4174
3.28293
18.0308
4.04531
16.7056
30.0102
15.5812
33.7176
13.469
36.1358
1.55274
25.4549
1.1614
21.3335
42.3724
17.4762
45.9362
12.1438
47.1144
-8.13511
27.894
-10.2273
19.0328
48.8275
10.2888
48.7925
-4.11218
36.2757
29144.4
29090.9
29036.4
28980.9
28924.6
28867.4
28809.6
28751.1
28692
28632.5
28572.6
28512.4
28451.9
28391.2
28330.4
1.6069
1.50809
1.40145
1.28884
1.17226
1.05362
0.934594
0.816523
0.700333
0.586563
0.475403
0.36675
0.260271
0.155462
0.0517014
2.68827
2.52196
2.3422
2.15233
1.9559
1.75631
1.55648
1.35867
1.16443
0.974618
0.789481
0.608783
0.431898
0.257924
0.0857692
3.78586
3.54933
3.29309
3.02238
2.74271
2.45924
2.17631
1.8972
1.62404
1.35792
1.09905
0.846942
0.60057
0.35854
0.11921
4.90738
4.59638
4.25843
3.90136
3.53328
3.16158
2.79227
2.42969
2.0765
1.73386
1.40176
1.07928
0.764835
0.456419
0.151722
6.06216
5.67035
5.24288
4.79132
4.32745
3.86154
3.40151
2.95277
2.51833
2.09916
1.69474
1.30347
0.922998
0.550529
0.182961
7.26175
6.77974
6.25116
5.69342
5.12351
4.55551
3.99945
3.46158
2.94486
2.44964
1.97448
1.51674
1.07307
0.639679
0.21253
8.52132
7.93495
7.28796
6.60713
5.91722
5.23716
4.57902
3.94923
3.34988
2.78002
2.23671
1.71585
1.21278
0.722525
0.239984
9.86226
9.14956
8.35755
7.52901
6.70028
5.89611
5.12972
4.40619
3.72535
3.08382
2.4764
1.8971
1.3396
0.797594
0.26484
11.3176
10.4426
9.46288
8.45036
7.45815
6.51639
5.63673
4.81995
4.06129
3.35338
2.68791
2.05644
1.45084
0.86336
0.286604
12.9424
11.8408
10.6011
9.35146
8.16584
7.07431
6.08026
5.17508
4.34615
3.58033
2.86528
2.18981
1.54387
0.918348
0.3048
14.839
13.3761
11.7485
10.1875
8.77933
7.53461
6.43456
5.45356
4.56758
3.7563
3.00292
2.29354
1.6164
0.961293
0.319026
17.2534
15.0745
12.828
10.8692
9.2285
7.84962
6.66926
5.63658
4.71404
3.87416
3.0964
2.36488
1.66678
0.991331
0.32901
20.8251
16.84
13.6193
11.2323
9.4154
7.96546
6.75567
5.70902
4.77753
3.92969
3.14348
2.40265
1.6944
1.00817
0.334666
26.7533
17.8406
13.5754
11.0246
9.235
7.8406
6.67828
5.66585
4.75711
3.92337
3.14503
2.40766
1.69989
1.01218
0.336121
-0.353751
-1.06497
-1.78752
-2.5295
-3.29992
-4.10929
-4.97047
-5.90014
-6.92143
-8.06907
-9.40032
-11.0195
-13.1379
-16.2295
-21.412
-0.351877
-1.05895
-1.77609
-2.51036
-3.26935
-4.06147
-4.89628
-5.78486
-6.74036
-7.7783
-8.9154
-10.1595
-11.4592
-12.4677
-11.4529
-0.347677
-1.04588
-1.75269
-2.47394
-3.21564
-3.98386
-4.78453
-5.6228
-6.50159
-7.41817
-8.35568
-9.26056
-9.98209
-10.1104
-8.57906
-0.341477
-1.02679
-1.71916
-2.42322
-3.14339
-3.88356
-4.64646
-5.4323
-6.23619
-7.04313
-7.81825
-8.48836
-8.91601
-8.90545
-8.4401
-0.333616
-1.00273
-1.67743
-2.36122
-3.05714
-3.76735
-4.49226
-5.22893
-5.96826
-6.68992
-7.35355
-7.88386
-8.15389
-8.01557
-7.63309
-0.324428
-0.974732
-1.6293
-2.29069
-2.96086
-3.64081
-4.32967
-5.02335
-5.71214
-6.37675
-6.98134
-7.4592
-7.67517
-7.29466
-5.09483
-0.314213
-0.943716
-1.57637
-2.21395
-2.85771
-3.50797
-4.16356
-4.82084
-5.47236
-6.10491
-6.69713
-7.21564
-7.61039
-7.83674
-8.10472
-0.30323
-0.910459
-1.51992
-2.13282
-2.74994
-3.37135
-3.99614
-4.62207
-5.24528
-5.86069
-6.46403
-7.05741
-7.66218
-8.34945
-9.24486
-0.291693
-0.875596
-1.46099
-2.04867
-2.63909
-3.23228
-3.82783
-4.42496
-5.02323
-5.62445
-6.23768
-6.89078
-7.6563
-8.71716
-10.5345
-0.279775
-0.83964
-1.4004
-1.96251
-2.52619
-3.09148
-3.65831
-4.2269
-4.79884
-5.37949
-5.98342
-6.64569
-7.44495
-8.5591
-10.4294
-0.267622
-0.80301
-1.3388
-1.87514
-2.41207
-2.94951
-3.48745
-4.02637
-4.56816
-5.11805
-5.68842
-6.30511
-7.01457
-7.87553
-8.8204
-0.255353
-0.766057
-1.27673
-1.78727
-2.29747
-2.80706
-3.31579
-3.82371
-4.33164
-4.84214
-5.36104
-5.89983
-6.47866
-7.13333
-7.9596
-0.243071
-0.729086
-1.21469
-1.69955
-2.18321
-2.66511
-3.14459
-3.6209
-4.09317
-4.56018
-5.01964
-5.46646
-5.88984
-6.27167
-6.56911
-0.230866
-0.692362
-1.15312
-1.61258
-2.07006
-2.52472
-2.97546
-3.42076
-3.8582
-4.28328
-4.68685
-5.04915
-5.32964
-5.46837
-5.55233
-0.218815
-0.656116
-1.0924
-1.52692
-1.9588
-2.38696
-2.81001
-3.22596
-3.63163
-4.02117
-4.38258
-4.68842
-4.8677
-4.70291
-3.34889
-0.206984
-0.620547
-1.03287
-1.44304
-1.85004
-2.25266
-2.64939
-3.03819
-3.41612
-3.77844
-4.11679
-4.41541
-4.64456
-4.76316
-4.85631
-0.195428
-0.585816
-0.974781
-1.36131
-1.74427
-2.12239
-2.49418
-2.85786
-3.21133
-3.55222
-3.87847
-4.19049
-4.49808
-4.84094
-5.32552
-0.184188
-0.552051
-0.918355
-1.282
-1.6418
-1.99645
-2.34453
-2.68454
-3.01517
-3.33606
-3.64995
-3.96851
-4.32699
-4.8202
-5.68006
-0.173299
-0.519351
-0.863745
-1.20532
-1.54286
-1.87502
-2.20042
-2.51766
-2.8257
-3.12465
-3.41811
-3.71872
-4.06227
-4.54474
-5.43503
-0.162785
-0.487786
-0.811064
-1.13142
-1.4476
-1.75825
-2.06191
-2.35711
-2.64245
-2.917
-3.18124
-3.43902
-3.701
-3.986
-4.27124
-0.152661
-0.457402
-0.760386
-1.0604
-1.35615
-1.64628
-1.92925
-2.20337
-2.46663
-2.71643
-2.94881
-3.15636
-3.32371
-3.42704
-3.52549
-0.142937
-0.428227
-0.711753
-0.9923
-1.26859
-1.53924
-1.8027
-2.05714
-2.30012
-2.52792
-2.73358
-2.90157
-2.99084
-2.87146
-2.03229
-0.133615
-0.400267
-0.665174
-0.92714
-1.18491
-1.43716
-1.68239
-1.91882
-2.14413
-2.35476
-2.54449
-2.70142
-2.80285
-2.81572
-2.77897
-0.124693
-0.373512
-0.620626
-0.864874
-1.10506
-1.33994
-1.56815
-1.78821
-1.99831
-2.19608
-2.37816
-2.53981
-2.67637
-2.79445
-2.95779
-0.116162
-0.347935
-0.578057
-0.805416
-1.02888
-1.24732
-1.45957
-1.66451
-1.86103
-2.04829
-2.22602
-2.39562
-2.56273
-2.74179
-2.95608
-0.108011
-0.323502
-0.537402
-0.74865
-0.95619
-1.15899
-1.35607
-1.54662
-1.73019
-1.90712
-2.07952
-2.25319
-2.44083
-2.66469
-2.94376
-0.100227
-0.30017
-0.498583
-0.694454
-0.886783
-1.07462
-1.2571
-1.43359
-1.60396
-1.7691
-1.93216
-2.10106
-2.2938
-2.5493
-2.94874
-0.0927964
-0.277898
-0.461529
-0.642713
-0.820495
-0.993959
-1.16228
-1.32482
-1.48137
-1.63254
-1.78076
-1.93242
-2.10324
-2.33402
-2.74928
-0.085707
-0.256648
-0.426171
-0.593335
-0.757206
-0.916874
-1.07147
-1.22023
-1.36253
-1.49805
-1.62701
-1.75051
-1.87107
-1.99068
-2.07935
-0.0789462
-0.236383
-0.392453
-0.546243
-0.696837
-0.843312
-0.984734
-1.12013
-1.24841
-1.36815
-1.47707
-1.57066
-1.63963
-1.6689
-1.68038
-0.0725021
-0.217069
-0.360321
-0.501374
-0.639331
-0.773265
-0.90219
-1.02499
-1.14023
-1.24579
-1.33779
-1.40797
-1.43579
-1.35954
-0.944611
-0.0663624
-0.198669
-0.329718
-0.458659
-0.584624
-0.706703
-0.823911
-0.935103
-1.03881
-1.13288
-1.21369
-1.27475
-1.30427
-1.28543
-1.2327
-0.0605141
-0.181145
-0.300582
-0.418017
-0.532622
-0.643533
-0.749821
-0.850437
-0.944112
-1.02919
-1.10336
-1.16346
-1.20639
-1.23491
-1.28212
-0.0549424
-0.164454
-0.272841
-0.379345
-0.483192
-0.583584
-0.679684
-0.770608
-0.855412
-0.933112
-1.00281
-1.06415
-1.11858
-1.17147
-1.23091
-0.0496314
-0.148546
-0.246412
-0.342525
-0.43617
-0.526624
-0.613155
-0.69505
-0.771673
-0.842625
-0.908101
-0.969696
-1.03187
-1.10355
-1.19581
-0.0445636
-0.133369
-0.221205
-0.307425
-0.391373
-0.472397
-0.549858
-0.623171
-0.691902
-0.755972
-0.816121
-0.874883
-0.938623
-1.02139
-1.15087
-0.0397206
-0.118867
-0.197128
-0.273909
-0.348616
-0.420656
-0.489455
-0.554495
-0.615393
-0.672075
-0.725137
-0.776657
-0.832213
-0.906857
-1.049
-0.0350836
-0.104984
-0.174082
-0.241841
-0.30772
-0.371176
-0.431677
-0.488712
-0.541836
-0.590722
-0.635255
-0.67567
-0.712595
-0.745515
-0.757502
-0.0306329
-0.0916606
-0.151972
-0.211086
-0.268514
-0.323759
-0.376317
-0.425664
-0.471247
-0.512418
-0.548261
-0.577147
-0.595798
-0.598763
-0.592822
-0.0263488
-0.0788376
-0.130698
-0.181507
-0.23083
-0.278219
-0.323198
-0.365247
-0.403743
-0.437838
-0.466123
-0.485768
-0.48993
-0.458237
-0.313776
-0.0222105
-0.0664534
-0.11016
-0.152966
-0.194497
-0.23436
-0.272126
-0.307312
-0.339317
-0.367315
-0.390006
-0.405173
-0.408992
-0.396055
-0.370234
-0.0181968
-0.054444
-0.0902504
-0.125316
-0.15933
-0.191963
-0.222856
-0.251599
-0.277694
-0.300496
-0.319131
-0.332487
-0.339715
-0.342851
-0.358118
-0.0142854
-0.042743
-0.0708589
-0.0984005
-0.125126
-0.150781
-0.175087
-0.197736
-0.218373
-0.236588
-0.251935
-0.264082
-0.2733
-0.28125
-0.289135
-0.0104535
-0.031281
-0.0518692
-0.0720552
-0.0916708
-0.11054
-0.128475
-0.14528
-0.160747
-0.174686
-0.186973
-0.197732
-0.207785
-0.219717
-0.24179
-0.00667714
-0.0199866
-0.033161
-0.046109
-0.0587372
-0.0709503
-0.0826534
-0.0937576
-0.104194
-0.113942
-0.123081
-0.131887
-0.140981
-0.151159
-0.160177
-0.00293231
-0.008787
-0.0146118
-0.020387
-0.026094
-0.0317173
-0.0372499
-0.0427034
-0.048126
-0.0536304
-0.0594262
-0.065852
-0.0734342
-0.0834181
-0.103285
0.000805381
0.00239123
0.00390205
0.00528641
0.0064899
0.00745166
0.00809756
0.00832766
0.00799552
0.00687988
0.00466375
0.000979717
-0.00422468
-0.00882201
0.000374169
0.0045603
0.0136214
0.0225035
0.0310852
0.0392417
0.0468403
0.0537342
0.0597493
0.0646604
0.0681539
0.0697746
0.0688654
0.0645634
0.0561944
0.0454698
0.00835661
0.0249761
0.0413139
0.0571802
0.072382
0.0867199
0.0999834
0.11194
0.122312
0.130731
0.136648
0.13911
0.136181
0.12285
0.0808046
0.0122182
0.0365271
0.0604529
0.0837385
0.106125
0.127349
0.147144
0.165235
0.181323
0.195054
0.205929
0.213105
0.215031
0.209457
0.199177
0.0161688
0.0483453
0.0800383
0.110924
0.140678
0.168975
0.195495
0.219928
0.241979
0.261369
0.277791
0.290761
0.299104
0.299348
0.278461
0.0202317
0.0605008
0.100187
0.138899
0.176246
0.21184
0.245303
0.276284
0.304495
0.329757
0.352069
0.371646
0.388822
0.403936
0.421414
0.02443
0.0730631
0.121014
0.167826
0.213039
0.256193
0.296842
0.334575
0.369072
0.40021
0.428264
0.45422
0.479998
0.506915
0.521619
0.0287867
0.0861011
0.142637
0.197869
0.251267
0.302294
0.350417
0.395127
0.435998
0.472825
0.505941
0.536944
0.570416
0.618411
0.716331
0.0333242
0.0996825
0.165168
0.229191
0.291148
0.350421
0.406374
0.458359
0.505751
0.54804
0.585109
0.617985
0.650785
0.695284
0.779037
0.0380639
0.113872
0.18872
0.261953
0.332901
0.400863
0.465098
0.524798
0.579069
0.626904
0.667216
0.699113
0.72307
0.744946
0.786997
0.0430264
0.128733
0.213397
0.296308
0.376735
0.453905
0.526984
0.595024
0.656878
0.711019
0.755197
0.785791
0.796841
0.780647
0.749326
0.0482303
0.144321
0.239295
0.332395
0.422838
0.509799
0.592383
0.669565
0.740066
0.80208
0.852642
0.886081
0.889574
0.826901
0.562747
0.0536925
0.160686
0.2665
0.370334
0.471368
0.568744
0.661548
0.748764
0.829173
0.901122
0.962009
1.00721
1.0283
1.01312
0.974356
0.0594278
0.177873
0.295083
0.410224
0.522445
0.630873
0.734607
0.83271
0.924181
1.00788
1.0823
1.14513
1.19225
1.21577
1.19431
0.065449
0.19592
0.325108
0.452148
0.576164
0.696271
0.81159
0.921281
1.02461
1.1211
1.21068
1.294
1.37265
1.44972
1.54012
0.0717674
0.214861
0.356629
0.496177
0.632604
0.765003
0.892493
1.01428
1.12983
1.23914
1.34344
1.44617
1.5542
1.67447
1.77769
0.0783928
0.234725
0.389694
0.542379
0.691846
0.837151
0.977365
1.11164
1.23939
1.36071
1.47731
1.59472
1.72732
1.91111
2.24589
0.0853334
0.255537
0.424347
0.590818
0.753982
0.912841
1.06637
1.21354
1.35345
1.48558
1.61065
1.73275
1.86494
2.04299
2.35545
0.0925959
0.277318
0.460626
0.641556
0.81911
0.992235
1.15979
1.32051
1.47293
1.61538
1.74608
1.86381
1.97078
2.0816
2.24305
0.100184
0.300081
0.498556
0.694638
0.887314
1.0755
1.25796
1.43323
1.59934
1.75337
1.89054
2.00239
2.07399
2.08511
2.0693
0.1081
0.323831
0.538146
0.750082
0.958636
1.16273
1.36114
1.55233
1.73415
1.90309
2.0526
2.16895
2.21923
2.10738
1.46976
0.116342
0.348561
0.579385
0.80787
1.03305
1.2539
1.46931
1.67793
1.87791
2.06631
2.2377
2.38143
2.47709
2.49481
2.46879
0.124905
0.374258
0.622243
0.867946
1.11045
1.34885
1.5822
1.80952
2.02973
2.24134
2.442
2.62732
2.78908
2.91265
2.96254
0.133783
0.4009
0.666677
0.930231
1.1907
1.44728
1.69924
1.94605
2.1875
2.42398
2.65694
2.88957
3.12763
3.38167
3.68952
0.14297
0.428467
0.712645
0.994641
1.27364
1.54889
1.81985
2.08628
2.3487
2.60904
2.87211
3.14804
3.45507
3.81335
4.1694
0.152461
0.456943
0.760113
1.06112
1.35914
1.65347
1.94356
2.22928
2.51132
2.79218
3.07831
3.38491
3.74691
4.24658
5.10217
0.162253
0.48632
0.80907
1.12964
1.44719
1.76095
2.07027
2.37479
2.67472
2.97162
3.27027
3.58327
3.94313
4.43264
5.25879
0.172347
0.516598
0.859521
1.20023
1.53784
1.87147
2.20028
2.52344
2.84017
3.14981
3.45219
3.74904
4.04929
4.38488
4.83633
0.182744
0.547786
0.911487
1.27294
1.6312
1.9853
2.33415
2.67649
3.01047
3.33299
3.63789
3.91238
4.13085
4.2566
4.36578
0.193443
0.579887
0.964989
1.34782
1.72741
2.1027
2.4725
2.83526
3.18866
3.52831
3.84463
4.11455
4.27671
4.13976
2.9559
0.204445
0.612899
1.02003
1.42492
1.82655
2.22386
2.61564
3.00046
3.37631
3.73973
4.08347
4.39145
4.63019
4.74984
4.82925
0.215741
0.646807
1.0766
1.50421
1.92864
2.34879
2.76353
3.17177
3.57249
3.96471
4.34701
4.71631
5.06624
5.38773
5.66258
0.227317
0.681571
1.13465
1.58567
2.03362
2.47738
2.91584
3.34819
3.77445
4.19644
4.61942
5.05445
5.52188
6.05785
6.74896
0.239148
0.717122
1.19408
1.66919
2.14142
2.60955
3.07228
3.52871
3.97921
4.42732
4.88329
5.36989
5.92972
6.62002
7.40539
0.251192
0.753347
1.25474
1.75464
2.25199
2.74535
3.23298
3.71321
4.18547
4.65257
5.12567
5.63427
6.2467
7.11589
8.60903
0.263384
0.790064
1.31639
1.84179
2.36523
2.88501
3.39868
3.90309
4.39511
4.87344
5.34319
5.8263
6.38511
7.17814
8.60923
0.275624
0.826993
1.3786
1.93021
2.4809
3.02881
3.57065
4.10141
4.61407
5.10005
5.55118
5.96549
6.36056
6.79695
7.36316
0.287767
0.863713
1.44076
2.01917
2.59841
3.17667
3.75016
4.3121
4.85134
5.35062
5.78448
6.11773
6.30699
6.32523
6.36987
0.299609
0.899625
1.5019
2.10745
2.71647
3.32771
3.93753
4.53835
5.11614
5.64634
6.08738
6.36963
6.37183
5.83482
3.88763
0.310883
0.933923
1.56068
2.19322
2.83286
3.47959
4.13097
4.78039
5.41373
6.00372
6.50023
6.81563
6.81074
6.32335
5.45238
0.321253
0.965592
1.61537
2.27395
2.94421
3.62808
4.32561
5.03338
5.74115
6.42569
7.03853
7.48363
7.58431
7.07782
5.88473
0.330331
0.993434
1.66386
2.34646
3.04599
3.76692
4.51297
5.28612
6.08443
6.89713
7.69292
8.39035
8.77907
8.3086
5.5614
0.337696
1.01614
1.7038
2.40709
3.13276
3.88816
4.68133
5.52117
6.41742
7.37994
8.41521
9.51097
10.57
11.1198
8.98192
0.342924
1.03238
1.73281
2.45204
3.19876
3.98302
4.81711
5.71684
6.70409
7.81177
9.09494
10.6566
12.7143
15.7965
21.3198
20.6235
15.0929
12.1318
10.1973
8.73557
7.52888
6.47969
5.53801
4.67469
3.87054
3.11165
2.38711
1.68784
1.00594
0.334198
7.85083
10.2676
9.95244
9.06023
8.07797
7.12107
6.21477
5.36066
4.55377
3.78743
3.0547
2.34883
1.66342
0.992375
0.329851
4.04618
7.33888
8.17327
7.98522
7.40235
6.67772
5.91327
5.15023
4.40448
3.68081
2.97894
2.29622
1.62893
0.972843
0.323527
3.31691
6.1167
7.10368
7.18394
6.82477
6.26165
5.61047
4.92753
4.23966
3.55889
2.88975
2.2328
1.58658
0.948554
0.315611
5.24981
6.15297
6.66333
6.68739
6.38844
5.90637
5.3294
4.70801
4.0697
3.42875
2.79195
2.16181
1.53846
0.920681
0.306483
6.09988
6.46157
6.56026
6.41474
6.0789
5.61666
5.07888
4.49998
3.90138
3.29558
2.68939
2.08599
1.4864
0.890269
0.296482
7.42376
6.95237
6.62633
6.27386
5.85678
5.37909
4.85665
4.30542
3.73786
3.16254
2.58475
2.00744
1.43186
0.858181
0.285893
8.08763
7.34175
6.71032
6.17748
5.67641
5.1723
4.65413
4.12197
3.57956
3.03105
2.47967
1.92758
1.37592
0.825082
0.27494
9.20417
7.65121
6.72543
6.05867
5.49786
4.975
4.46109
3.94541
3.42534
2.9014
2.37497
1.84732
1.31934
0.791459
0.263789
9.12563
7.52469
6.56028
5.86594
5.29266
4.77122
4.26905
3.77172
3.27365
2.77335
2.271
1.76721
1.26261
0.75765
0.252559
7.77633
6.95571
6.20723
5.58885
5.05119
4.55383
4.07345
3.59835
3.12334
2.64662
2.16791
1.68757
1.20608
0.723893
0.241335
7.05552
6.33631
5.76352
5.25542
4.7815
4.32441
3.87399
3.42474
2.97409
2.52113
2.06586
1.60865
1.14999
0.690355
0.230177
5.89172
5.61495
5.27464
4.89802
4.49991
4.09017
3.67354
3.25197
2.82631
2.39715
1.96507
1.53066
1.09451
0.657166
0.219131
5.014
4.93749
4.81076
4.55535
4.22623
3.86053
3.47636
3.08189
2.68084
2.27511
1.86582
1.45382
1.03982
0.624427
0.208231
3.06426
4.29474
4.43606
4.2637
3.97777
3.64358
3.28621
2.91626
2.53853
2.15544
1.76838
1.37832
0.986037
0.592223