/*--------------------------------*- C++ -*----------------------------------*\
| =========                 |                                                 |
| \\      /  F ield         | OpenFOAM: The Open Source CFD Toolbox           |
|  \\    /   O peration     | Version:  5.x                                   |
|   \\  /    A nd           | Web:      www.OpenFOAM.org                      |
|    \\/     M anipulation  |                                                 |
\*---------------------------------------------------------------------------*/
FoamFile
{
    version     2.0;
    format      ascii;
    class       volScalarField;
    location    "0.8";
    object      gradTx;
}
// * * * * * * * * * * * * * * * * * * * * * * * * * * * * * * * * * * * * * //

dimensions      [0 -1 0 1 0 0 0];

internalField   nonuniform List<scalar> 
6300
(
-59.4937
-59.4255
-59.2888
-59.0831
-58.8077
-58.4618
-58.0448
-57.5562
-56.9957
-56.3638
-55.6619
-54.8918
-54.0564
-53.1596
-52.2054
-59.5605
-59.4925
-59.3564
-59.1513
-58.8767
-58.5316
-58.1151
-57.6266
-57.0657
-56.4328
-55.7288
-54.9559
-54.1169
-53.2159
-52.2573
-59.6937
-59.6263
-59.4913
-59.2877
-59.0148
-58.6713
-58.2561
-57.7681
-57.2066
-56.5714
-55.8635
-55.0848
-54.2384
-53.3286
-52.3609
-59.8928
-59.8264
-59.6931
-59.4921
-59.222
-58.8814
-58.4685
-57.9817
-57.4196
-56.7816
-56.0679
-55.2803
-54.4221
-53.4984
-52.5159
-60.1568
-60.0918
-59.9612
-59.7639
-59.4983
-59.1623
-58.7534
-58.2692
-57.7074
-57.0662
-56.345
-55.5452
-54.6702
-53.7261
-52.7216
-60.4843
-60.4213
-60.2945
-60.1027
-59.8436
-59.5145
-59.1122
-58.633
-58.0732
-57.4294
-56.6996
-55.8841
-54.9862
-54.0133
-52.9771
-60.8732
-60.8129
-60.6914
-60.5071
-60.2573
-59.9386
-59.5465
-59.0761
-58.5215
-57.8772
-57.1388
-56.3042
-55.376
-54.363
-53.2809
-61.3209
-61.2641
-61.1496
-60.9754
-60.7384
-60.4344
-60.0578
-59.6018
-59.0581
-58.418
-57.6729
-56.8168
-55.8496
-54.7806
-53.6315
-61.8238
-61.7715
-61.6659
-61.5048
-61.2849
-61.0012
-60.6471
-60.2137
-59.6899
-59.0624
-58.3166
-57.4394
-56.4238
-55.2771
-54.0281
-62.3773
-62.3305
-62.236
-62.0915
-61.8936
-61.637
-61.3141
-60.9145
-60.424
-59.8237
-59.0905
-58.1989
-57.1279
-55.8746
-54.4734
-62.9758
-62.9356
-62.8544
-62.7301
-62.5594
-62.3374
-62.0563
-61.7049
-61.2663
-60.7165
-60.0212
-59.1364
-58.013
-56.6186
-54.9809
-63.6128
-63.5801
-63.5141
-63.4132
-63.275
-63.0952
-62.8672
-62.5807
-62.2185
-61.753
-61.1401
-60.3107
-59.1677
-57.6045
-55.592
-64.2806
-64.2561
-64.2069
-64.132
-64.0303
-63.8994
-63.7352
-63.5305
-63.2721
-62.9355
-62.4736
-61.797
-60.7408
-59.0384
-56.4225
-64.9711
-64.9551
-64.9234
-64.876
-64.8132
-64.7353
-64.642
-64.5323
-64.4023
-64.2412
-64.02
-63.6613
-62.9584
-61.3843
-57.8387
-65.6756
-65.6681
-65.6536
-65.6334
-65.6094
-65.5846
-65.5635
-65.5525
-65.5616
-65.6049
-65.702
-65.868
-66.0459
-65.7004
-61.4466
-51.2861
-50.413
-49.5083
-48.5739
-47.6115
-46.6225
-45.6081
-44.5696
-43.5086
-42.4271
-41.3275
-40.2131
-39.0874
-37.9545
-36.8188
-35.6848
-34.5569
-33.4396
-32.3372
-31.2539
-30.1936
-29.1599
-28.1564
-27.1862
-26.2519
-25.3561
-24.5008
-23.6877
-22.9181
-22.1929
-21.5129
-20.8786
-20.2901
-19.7474
-19.2506
-18.7992
-18.3932
-18.0321
-17.7156
-17.4436
-17.2156
-17.0315
-16.8909
-16.7939
-16.7404
-16.7304
-16.7642
-16.842
-16.9642
-17.1313
-17.3438
-17.602
-17.9064
-18.2573
-18.6548
-19.099
-19.5897
-20.1267
-20.7094
-21.3372
-22.0093
-22.7247
-23.4824
-24.2811
-25.1195
-25.996
-26.909
-27.8565
-28.8366
-29.8469
-30.8851
-31.9486
-33.0348
-34.1409
-35.2639
-36.4008
-37.5484
-38.7035
-39.8626
-41.0223
-42.1791
-43.3298
-44.4709
-45.599
-46.7107
-47.8025
-48.8704
-49.9106
-50.919
-51.8914
-51.3342
-50.4578
-49.5503
-48.6136
-47.6493
-46.6585
-45.6423
-44.6017
-43.5379
-42.4529
-41.3489
-40.2294
-39.0979
-37.9588
-36.8167
-35.6762
-34.542
-33.4186
-32.3103
-31.2214
-30.1558
-29.1172
-28.1093
-27.135
-26.1974
-25.2987
-24.441
-23.626
-22.8549
-22.1288
-21.4482
-20.8136
-20.2251
-19.6826
-19.1861
-18.7351
-18.3295
-17.9689
-17.6529
-17.3812
-17.1536
-16.9698
-16.8295
-16.7325
-16.6789
-16.6686
-16.7019
-16.7791
-16.9007
-17.0671
-17.279
-17.5367
-17.8407
-18.1913
-18.5888
-19.0331
-19.5243
-20.0619
-20.6455
-21.2744
-21.9479
-22.6649
-23.4243
-24.2249
-25.0655
-25.9444
-26.86
-27.8105
-28.7937
-29.8075
-30.8493
-31.9166
-33.0067
-34.1169
-35.2442
-36.3856
-37.538
-38.6978
-39.8618
-41.0263
-42.188
-43.3434
-44.4893
-45.6223
-46.7391
-47.8361
-48.9097
-49.9557
-50.97
-51.9481
-51.4296
-50.5466
-49.6336
-48.6924
-47.7246
-46.7308
-45.7114
-44.6668
-43.5977
-42.5056
-41.3928
-40.2627
-39.1194
-37.9677
-36.8125
-35.659
-34.512
-33.3762
-32.2561
-31.1559
-30.0796
-29.0312
-28.0143
-27.0321
-26.0876
-25.1831
-24.3207
-23.502
-22.7282
-22.0001
-21.3184
-20.6833
-20.0948
-19.5528
-19.057
-18.6069
-18.2022
-17.8425
-17.5275
-17.2567
-17.0298
-16.8466
-16.7067
-16.6099
-16.5561
-16.5453
-16.5777
-16.6537
-16.7739
-16.9389
-17.1493
-17.4058
-17.709
-18.0591
-18.4564
-18.9011
-19.393
-19.932
-20.5174
-21.1487
-21.8249
-22.545
-23.3079
-24.1124
-24.9572
-25.8408
-26.7618
-27.7181
-28.7077
-29.7283
-30.7774
-31.8523
-32.9503
-34.0687
-35.2046
-36.3551
-37.5169
-38.6864
-39.8601
-41.0344
-42.2057
-43.3705
-44.5258
-45.6684
-46.7953
-47.9031
-48.9879
-50.0457
-51.0719
-52.0618
-51.5715
-50.6781
-49.7565
-48.809
-47.8367
-46.8393
-45.8164
-44.7668
-43.6904
-42.588
-41.4616
-40.3151
-39.1533
-37.9817
-36.8062
-35.6327
-34.4662
-33.3117
-32.1737
-31.0564
-29.9641
-28.9007
-27.8701
-26.8758
-25.9208
-25.0077
-24.1384
-23.3142
-22.5364
-21.8057
-21.1225
-20.4869
-19.8987
-19.3577
-18.8631
-18.4145
-18.0113
-17.6531
-17.3394
-17.07
-16.8444
-16.6622
-16.5231
-16.4267
-16.3726
-16.3609
-16.3918
-16.4658
-16.5837
-16.7463
-16.9545
-17.2091
-17.5107
-17.8599
-18.257
-18.7021
-19.1953
-19.7362
-20.3245
-20.9593
-21.6397
-22.3645
-23.1326
-23.9427
-24.7938
-25.6845
-26.6134
-27.5786
-28.5779
-29.6089
-30.6689
-31.7552
-32.865
-33.9957
-35.1446
-36.3087
-37.4847
-38.6691
-39.8578
-41.0468
-42.2324
-43.4112
-44.5802
-45.7369
-46.8787
-48.0024
-49.1045
-50.1805
-51.2254
-52.2336
-51.7578
-50.8493
-49.9161
-48.9609
-47.9841
-46.9845
-45.9592
-44.9052
-43.8205
-42.7046
-41.5595
-40.3896
-39.2012
-38.0014
-36.7976
-35.5964
-34.4036
-33.2241
-32.062
-30.9217
-29.8074
-28.7235
-27.6743
-26.6636
-25.6948
-24.7702
-23.8918
-23.0607
-22.2779
-21.5439
-20.859
-20.2231
-19.6359
-19.0966
-18.6042
-18.1579
-17.7569
-17.4006
-17.0888
-16.8213
-16.5975
-16.4171
-16.2793
-16.1836
-16.1293
-16.1164
-16.145
-16.216
-16.3303
-16.4893
-16.6941
-16.9458
-17.2452
-17.593
-17.9895
-18.4351
-18.9298
-19.4735
-20.0657
-20.7054
-21.3915
-22.1227
-22.8976
-23.7152
-24.5744
-25.4742
-26.4135
-27.3906
-28.4032
-29.4485
-30.5234
-31.6249
-32.7502
-33.897
-35.0629
-36.2453
-37.4409
-38.6457
-39.8551
-41.0642
-42.2689
-43.4656
-44.6521
-45.8266
-46.9874
-48.1324
-49.258
-50.3594
-51.4306
-52.4651
-51.9852
-51.0554
-50.1068
-49.1431
-48.1641
-47.1661
-46.1429
-45.0877
-43.9952
-42.863
-41.693
-40.4909
-39.2656
-38.0272
-36.7854
-35.5485
-34.3224
-33.1116
-31.9196
-30.7502
-29.6077
-28.4972
-27.4237
-26.392
-25.4057
-24.4672
-23.578
-22.7387
-21.95
-21.2123
-20.5258
-19.8904
-19.3052
-18.769
-18.2801
-17.8371
-17.439
-17.0852
-16.7758
-16.5106
-16.2894
-16.1116
-15.9762
-15.8819
-15.8277
-15.8131
-15.8385
-15.9048
-16.0138
-16.1674
-16.3673
-16.6149
-16.9113
-17.257
-17.6526
-18.0985
-18.5949
-19.1421
-19.7394
-20.3858
-21.0796
-21.8189
-22.6023
-23.4286
-24.2973
-25.208
-26.1602
-27.1525
-28.1823
-29.2461
-30.3402
-31.4607
-32.6051
-33.7713
-34.9579
-36.1632
-37.3841
-38.6159
-39.8527
-41.088
-42.3166
-43.5347
-44.7409
-45.9354
-47.1186
-48.2896
-49.4456
-50.5809
-51.6881
-52.7585
-52.2481
-51.2877
-50.3188
-49.3469
-48.371
-47.3836
-46.3724
-45.3239
-44.2269
-43.0758
-41.8726
-40.6258
-39.3491
-38.058
-36.7666
-35.4852
-34.2196
-32.9725
-31.7453
-30.5406
-29.3627
-28.2181
-27.1137
-26.0558
-25.0486
-24.0942
-23.1931
-22.3449
-21.5497
-20.808
-20.1202
-19.4864
-18.9051
-18.3742
-17.8909
-17.4528
-17.0583
-16.7073
-16.4001
-16.1376
-15.92
-15.7464
-15.615
-15.5236
-15.4701
-15.4535
-15.474
-15.5334
-15.6344
-15.7799
-15.9728
-16.215
-16.5074
-16.8504
-17.2444
-17.6901
-18.1882
-18.7395
-19.3435
-19.9989
-20.703
-21.4529
-22.2463
-23.082
-23.9605
-24.8829
-25.85
-26.861
-27.913
-29.0011
-30.1194
-31.263
-32.4289
-33.6165
-34.8264
-36.0589
-37.3118
-38.5792
-39.8523
-41.1217
-42.3792
-43.6206
-44.8463
-46.0601
-47.2667
-48.4681
-49.6623
-50.8421
-51.9976
-53.1168
-52.5374
-51.5315
-50.5343
-49.5556
-48.5939
-47.635
-46.6555
-45.6297
-44.5362
-43.3639
-42.1149
-40.8037
-39.4535
-38.0896
-36.7338
-35.3995
-34.0908
-32.8052
-31.5393
-30.2927
-29.0706
-27.8819
-26.7377
-25.6473
-24.6163
-23.6455
-22.7328
-21.8757
-21.0733
-20.3268
-19.6381
-19.0076
-18.4336
-17.912
-17.4378
-17.0067
-16.6163
-16.2671
-15.9612
-15.7012
-15.4883
-15.3215
-15.1975
-15.1118
-15.0606
-15.0415
-15.0548
-15.1034
-15.1919
-15.3255
-15.5086
-15.7438
-16.0317
-16.3715
-16.7631
-17.2072
-17.7062
-18.2619
-18.875
-19.543
-20.2615
-21.0252
-21.8302
-22.6749
-23.5616
-24.4943
-25.4773
-26.5115
-27.5928
-28.7131
-29.8628
-31.0337
-32.2223
-33.4301
-34.6629
-35.9257
-37.2188
-38.5342
-39.8576
-41.1723
-42.4647
-43.7289
-44.9684
-46.195
-47.4216
-48.6567
-49.8987
-51.1378
-52.3586
-53.5441
-52.839
-51.7621
-50.7224
-49.7393
-48.8122
-47.9153
-47.0048
-46.0327
-44.959
-43.7625
-42.4466
-41.038
-39.5777
-38.1098
-36.6704
-35.2775
-33.9291
-32.6102
-31.3059
-30.0106
-28.7308
-27.4826
-26.285
-25.1543
-24.0982
-23.114
-22.1934
-21.3286
-20.5175
-19.7637
-19.073
-18.4487
-17.8878
-17.3827
-16.9237
-16.5029
-16.1163
-15.7659
-15.4574
-15.198
-14.9914
-14.8362
-14.7258
-14.6517
-14.6061
-14.5841
-14.5861
-14.6171
-14.6856
-14.8009
-14.9706
-15.1981
-15.4823
-15.8194
-16.207
-16.6466
-17.1434
-17.7031
-18.3283
-19.0155
-19.7559
-20.5394
-21.3578
-22.2086
-23.0972
-24.0345
-25.032
-26.0949
-27.2172
-28.3838
-29.5764
-30.7799
-31.9884
-33.2085
-34.4565
-35.7495
-37.0938
-38.4779
-39.8755
-41.2552
-42.591
-43.8723
-45.1092
-46.3291
-47.5641
-48.8345
-50.1388
-51.459
-52.7698
-54.0462
-53.1315
-51.9382
-50.8279
-49.8414
-48.9863
-48.2143
-47.4424
-46.5816
-45.5585
-44.333
-42.912
-41.3469
-39.7129
-38.0896
-36.5402
-35.0922
-33.7253
-32.3948
-31.0604
-29.7067
-28.3466
-27.011
-25.7369
-24.5549
-23.4774
-22.492
-21.5746
-20.7055
-19.8803
-19.1106
-18.4135
-17.7994
-17.263
-16.7882
-16.3559
-15.9508
-15.5657
-15.2052
-14.8843
-14.6198
-14.422
-14.2875
-14.2031
-14.1519
-14.1186
-14.0935
-14.0767
-14.078
-14.1131
-14.1992
-14.3504
-14.5722
-14.8578
-15.1956
-15.5773
-16.005
-16.4911
-17.0512
-17.6938
-18.4124
-19.1896
-20.0045
-20.8398
-21.6893
-22.5637
-23.4888
-24.4938
-25.594
-26.7786
-28.0179
-29.2751
-30.5196
-31.7385
-32.9472
-34.1859
-35.4998
-36.9121
-38.4025
-39.9195
-41.4012
-42.7956
-44.0794
-45.274
-46.4414
-47.6552
-48.9626
-50.3555
-51.7928
-53.2293
-54.6312
-53.3838
-51.9936
-50.7546
-49.7536
-49.0404
-48.5125
-48.0076
-47.3636
-46.4491
-45.1847
-43.5851
-41.7552
-39.8331
-37.9632
-36.2644
-34.7905
-33.4696
-32.1857
-30.8436
-29.4128
-27.928
-26.4519
-25.0573
-23.8059
-22.725
-21.7732
-20.8874
-20.02
-19.1645
-18.3543
-17.6355
-17.0393
-16.5506
-16.1335
-15.7503
-15.3711
-14.9806
-14.589
-14.2311
-13.9468
-13.7627
-13.6679
-13.6338
-13.6278
-13.6205
-13.5921
-13.5425
-13.4916
-13.4684
-13.505
-13.63
-13.8554
-14.1596
-14.5099
-14.8826
-15.2805
-15.7336
-16.2816
-16.9509
-17.726
-18.5704
-19.4413
-20.3027
-21.1352
-21.9582
-22.8295
-23.8193
-24.9725
-26.2625
-27.6272
-28.993
-30.297
-31.5042
-32.6435
-33.8075
-35.1088
-36.6185
-38.2889
-40.0145
-41.673
-43.1597
-44.4147
-45.4777
-46.4863
-47.6111
-48.9672
-50.5073
-52.1267
-53.7379
-55.3073
-53.5459
-51.8303
-50.3376
-49.251
-48.8276
-48.7777
-48.7729
-48.5352
-47.8435
-46.5193
-44.5896
-42.2968
-39.8782
-37.591
-35.6652
-34.2692
-33.1613
-32.0611
-30.7554
-29.1977
-27.4976
-25.7761
-24.1725
-22.8122
-21.7875
-20.9605
-20.1746
-19.3186
-18.3843
-17.4675
-16.6818
-16.1257
-15.7363
-15.4311
-15.1402
-14.8089
-14.3982
-13.9256
-13.4728
-13.1308
-12.9759
-12.9619
-13.0253
-13.1065
-13.1542
-13.1226
-13.0114
-12.8666
-12.7385
-12.6848
-12.7659
-13.0265
-13.396
-13.7931
-14.1526
-14.4779
-14.8405
-15.3383
-16.0571
-16.941
-17.9139
-18.8933
-19.8083
-20.5958
-21.2843
-22.0008
-22.9104
-24.1551
-25.6399
-27.2356
-28.801
-30.2147
-31.3682
-32.305
-33.2321
-34.418
-36.0939
-38.096
-40.2062
-42.1925
-43.8572
-45.0266
-45.7591
-46.3637
-47.2332
-48.7062
-50.544
-52.4716
-54.3052
-56.0665
-53.4982
-51.345
-49.335
-47.7925
-48.0755
-48.9769
-49.8731
-50.3602
-50.1485
-48.7258
-46.1173
-43.0197
-39.7344
-36.6988
-34.3036
-33.3339
-32.8425
-32.2334
-31.0308
-29.1884
-27.0991
-24.9315
-22.9385
-21.3362
-20.5668
-20.0897
-19.5639
-18.7309
-17.5804
-16.3929
-15.3989
-14.973
-14.8022
-14.7095
-14.5893
-14.3623
-13.9062
-13.2349
-12.5562
-12.0466
-11.9877
-12.1457
-12.3924
-12.6346
-12.8036
-12.7688
-12.5298
-12.219
-11.9027
-11.6717
-11.6447
-12.0422
-12.5938
-13.1316
-13.4732
-13.6226
-13.7542
-14.0779
-14.9269
-16.0292
-17.2494
-18.4393
-19.4989
-20.2002
-20.5714
-20.8956
-21.5199
-22.9933
-24.8588
-26.8888
-28.8286
-30.5082
-31.5451
-31.9814
-32.2846
-33.0226
-35.0999
-37.748
-40.5765
-43.1751
-45.2678
-46.2674
-46.2248
-45.8589
-45.986
-47.919
-50.4503
-52.9511
-54.9753
-56.7883
-52.7069
-50.6521
-47.6581
-43.7045
-46.4331
-49.1831
-51.5623
-53.191
-54.1973
-52.6401
-48.3493
-44.0133
-39.2312
-34.8852
-30.8896
-31.7106
-32.6941
-33.2611
-32.2286
-29.5357
-26.8145
-23.8367
-21.1428
-18.6618
-18.926
-19.2903
-19.3967
-18.6017
-16.8309
-15.0409
-13.299
-13.4541
-13.7566
-14.0287
-14.1936
-14.2471
-13.7252
-12.5559
-11.3975
-10.3144
-10.6882
-11.2031
-11.7672
-12.2694
-12.7479
-12.7106
-12.1528
-11.5803
-10.9453
-10.3661
-9.91332
-10.8369
-11.8128
-12.754
-13.0717
-12.7944
-12.3921
-12.0625
-13.433
-14.9489
-16.63
-18.1742
-19.7068
-20.2815
-19.9273
-19.3593
-18.9081
-21.2677
-23.8422
-26.6729
-29.232
-31.7285
-32.5877
-31.8502
-30.7119
-29.699
-33.2844
-37.1407
-41.2783
-44.8865
-48.2525
-49.009
-47.1554
-44.644
-42.1374
-46.2698
-50.3997
-54.1159
-55.9488
-56.7407
-47.9852
-51.311
-47.3625
-29.9932
-44.759
-49.9227
-54.3319
-56.9179
-61.9373
-60.4909
-50.6465
-45.6495
-38.1007
-32.5674
-20.5402
-29.8542
-33.1465
-36.5932
-35.8184
-29.925
-26.9006
-22.3341
-19.0418
-12.0351
-17.1426
-18.8632
-20.5291
-19.8789
-16.1101
-13.621
-8.46859
-11.7242
-12.7559
-13.5034
-13.9598
-14.9618
-14.4779
-11.8624
-10.1318
-6.48508
-9.18668
-10.191
-11.2326
-11.9396
-13.4362
-13.4033
-11.7985
-11.0329
-9.90899
-8.87934
-6.20101
-9.55772
-11.0827
-13.2756
-13.5285
-12.1476
-10.9264
-7.60013
-11.7312
-13.6318
-16.209
-17.9276
-21.2956
-21.7017
-19.5929
-17.6559
-12.2498
-19.2341
-22.4579
-26.8494
-29.7268
-35.3077
-35.9308
-32.2974
-28.9596
-19.7542
-31.0796
-36.1287
-42.7426
-46.947
-54.9951
-55.5089
-49.0332
-43.4218
-28.7283
-44.6232
-50.9441
-57.9913
-58.4194
-51.8473
-52.9125
-53.968
-54.9543
-55.8669
-56.7023
-57.4584
-58.1344
-58.7302
-59.2467
-59.6852
-60.0472
-60.3345
-60.5485
-60.6904
-60.7611
-52.9751
-54.0362
-55.027
-55.9429
-56.7803
-57.5373
-58.2131
-58.8081
-59.3233
-59.7601
-60.1206
-60.4063
-60.619
-60.76
-60.8303
-53.1008
-54.1735
-55.1736
-56.0961
-56.9375
-57.6961
-58.3714
-58.9644
-59.4766
-59.9101
-60.267
-60.5496
-60.7598
-60.8989
-60.9683
-53.2915
-54.3822
-55.3967
-56.3292
-57.1763
-57.9367
-58.6108
-59.2002
-59.7073
-60.1351
-60.4864
-60.7639
-60.9699
-61.1062
-61.174
-53.5499
-54.6662
-55.7005
-56.6465
-57.5006
-58.2625
-58.9335
-59.5167
-60.0159
-60.4351
-60.778
-61.0481
-61.2482
-61.3803
-61.446
-53.8802
-55.0312
-56.0917
-57.0543
-57.9161
-58.6777
-59.3427
-59.9159
-60.4031
-60.8098
-61.141
-61.4008
-61.5927
-61.7193
-61.7821
-54.2885
-55.4855
-56.5796
-57.5619
-58.4304
-59.1884
-59.8422
-60.3999
-60.8695
-61.2587
-61.5737
-61.8199
-62.0011
-62.1203
-62.1795
-54.7835
-56.0418
-57.178
-58.182
-59.054
-59.8018
-60.4366
-60.9705
-61.4151
-61.7802
-62.0739
-62.3022
-62.4698
-62.5798
-62.6344
-55.3785
-56.7189
-57.9074
-58.9326
-59.8004
-60.5266
-61.1302
-61.629
-62.0387
-62.3718
-62.6379
-62.8438
-62.9944
-63.0931
-63.142
-56.0935
-57.5465
-58.7986
-59.8393
-60.6869
-61.3724
-61.9265
-62.3749
-62.7374
-63.0292
-63.2606
-63.439
-63.5693
-63.6546
-63.6968
-56.9595
-58.5736
-59.8997
-60.9374
-61.7344
-62.348
-62.8266
-63.2045
-63.5053
-63.7452
-63.9348
-64.0808
-64.1875
-64.2574
-64.292
-58.0236
-59.8877
-61.2879
-62.2745
-62.9641
-63.4579
-63.8257
-64.109
-64.3322
-64.51
-64.6511
-64.7604
-64.8408
-64.8937
-64.9199
-59.3655
-61.6642
-63.0883
-63.9065
-64.3872
-64.6928
-64.9077
-65.0714
-65.2026
-65.3099
-65.3976
-65.4674
-65.5197
-65.5547
-65.5723
-61.2236
-64.3131
-65.4933
-65.8741
-65.9836
-66.0172
-66.0388
-66.0642
-66.0946
-66.1277
-66.1604
-66.1901
-66.2143
-66.2314
-66.2403
-64.9775
-68.8699
-68.6961
-68.1104
-67.6541
-67.3525
-67.1641
-67.0496
-66.9819
-66.9439
-66.9246
-66.9165
-66.9142
-66.9145
-66.9151
-66.3265
-66.3262
-66.3266
-66.3296
-66.3384
-66.3583
-66.3971
-66.4676
-66.5908
-66.8038
-67.1789
-67.8783
-69.3543
-73.2377
-86.9239
-66.9171
-66.9227
-66.9353
-66.9571
-66.9922
-67.0471
-67.1316
-67.2615
-67.4626
-67.7797
-68.295
-69.1654
-70.6883
-73.2807
-76.0019
-67.5022
-67.5131
-67.5361
-67.574
-67.631
-67.714
-67.8333
-68.0044
-68.252
-68.6164
-69.1632
-69.9982
-71.2777
-73.2325
-76.7295
-68.0784
-68.0936
-68.1253
-68.1762
-68.2505
-68.3545
-68.4974
-68.6924
-68.9587
-69.3247
-69.8303
-70.5208
-71.3966
-72.1115
-70.1668
-68.6424
-68.6612
-68.6998
-68.7608
-68.848
-68.9666
-69.1239
-69.3291
-69.5944
-69.9348
-70.3676
-70.913
-71.6253
-72.8359
-76.7548
-69.192
-69.2134
-69.2574
-69.3259
-69.4222
-69.5504
-69.7154
-69.9224
-70.1762
-70.4792
-70.8252
-71.1877
-71.5063
-71.6775
-71.6062
-69.7251
-69.7486
-69.7964
-69.8704
-69.9731
-70.1073
-70.276
-70.4812
-70.7222
-70.9924
-71.2696
-71.4912
-71.4882
-70.6856
-66.4303
-70.2402
-70.2652
-70.3159
-70.3937
-70.5006
-70.6387
-70.8095
-71.0131
-71.2463
-71.4998
-71.7508
-71.9487
-72.0239
-72.0895
-74.296
-70.7365
-70.7625
-70.8151
-70.8955
-71.0052
-71.1458
-71.3183
-71.5222
-71.7544
-72.008
-72.2669
-72.4896
-72.5649
-72.0045
-67.7426
-71.213
-71.2396
-71.2935
-71.3755
-71.4869
-71.6293
-71.8034
-72.0092
-72.2458
-72.5118
-72.8061
-73.1309
-73.5459
-74.4879
-78.9978
-71.6693
-71.6963
-71.7508
-71.8336
-71.946
-72.0892
-72.2645
-72.4726
-72.7149
-72.9952
-73.3221
-73.7076
-74.1594
-74.4915
-72.6638
-72.1052
-72.1323
-72.1869
-72.2699
-72.3822
-72.5254
-72.7008
-72.9098
-73.1556
-73.4454
-73.7953
-74.2361
-74.8546
-75.9928
-79.6743
-72.5205
-72.5475
-72.6018
-72.6842
-72.7958
-72.9378
-73.1117
-73.3191
-73.5636
-73.853
-74.2035
-74.6389
-75.1873
-75.7256
-74.6761
-72.9153
-72.942
-72.9956
-73.077
-73.1869
-73.3266
-73.4973
-73.7003
-73.9383
-74.2174
-74.5506
-74.9612
-75.5256
-76.5589
-79.7213
-73.2898
-73.316
-73.3687
-73.4484
-73.5559
-73.6923
-73.8584
-74.0548
-74.2824
-74.5436
-74.8417
-75.1746
-75.5367
-75.9112
-76.2398
-73.6444
-73.67
-73.7213
-73.7989
-73.9036
-74.0359
-74.1964
-74.385
-74.601
-74.8432
-75.1066
-75.3655
-75.5377
-75.2932
-73.0115
-73.9795
-74.0043
-74.0541
-74.1293
-74.2306
-74.3584
-74.513
-74.6937
-74.8992
-75.1275
-75.3725
-75.6144
-75.8265
-76.0877
-77.6408
-74.2955
-74.3194
-74.3676
-74.4402
-74.5378
-74.6608
-74.8093
-74.9826
-75.1796
-75.3992
-75.6385
-75.8818
-76.0797
-75.9827
-73.9566
-74.593
-74.6161
-74.6624
-74.7322
-74.826
-74.944
-75.0864
-75.2526
-75.4422
-75.6564
-75.8995
-76.1786
-76.5362
-77.2152
-79.7933
-74.8727
-74.8948
-74.9392
-75.0061
-75.0959
-75.2088
-75.3448
-75.5037
-75.6854
-75.8929
-76.1335
-76.4186
-76.768
-77.1267
-76.5428
-75.1351
-75.1563
-75.1987
-75.2627
-75.3483
-75.456
-75.5854
-75.7363
-75.9087
-76.1054
-76.3346
-76.6117
-76.992
-77.6904
-79.767
-75.3811
-75.4012
-75.4417
-75.5026
-75.5841
-75.6864
-75.8091
-75.9515
-76.113
-76.2947
-76.5001
-76.731
-76.9936
-77.2948
-77.6038
-75.6111
-75.6303
-75.6688
-75.7267
-75.8041
-75.9011
-76.017
-76.1509
-76.3011
-76.4666
-76.6459
-76.8261
-76.9669
-76.8916
-75.6805
-75.826
-75.8442
-75.8808
-75.9357
-76.0091
-76.1009
-76.2105
-76.3363
-76.4763
-76.6283
-76.789
-76.9464
-77.0889
-77.2749
-78.224
-76.0263
-76.0436
-76.0783
-76.1304
-76.2
-76.287
-76.3906
-76.5093
-76.6409
-76.7832
-76.9324
-77.0746
-77.1791
-77.1261
-76.1694
-76.2127
-76.2291
-76.262
-76.3114
-76.3774
-76.4599
-76.5581
-76.6709
-76.7961
-76.9325
-77.0785
-77.2269
-77.3773
-77.6027
-78.594
-76.3859
-76.4014
-76.4326
-76.4794
-76.5419
-76.6202
-76.7136
-76.8211
-76.9414
-77.0743
-77.2208
-77.3757
-77.5221
-77.5453
-76.6139
-76.5464
-76.5611
-76.5906
-76.6349
-76.6942
-76.7684
-76.8573
-76.9599
-77.0757
-77.206
-77.3551
-77.5283
-77.7509
-78.1485
-79.5051
-76.6948
-76.7087
-76.7366
-76.7785
-76.8346
-76.905
-76.9893
-77.087
-77.1978
-77.3238
-77.4707
-77.6445
-77.8567
-78.0836
-77.8707
-76.8317
-76.8448
-76.8711
-76.9108
-76.9638
-77.0303
-77.1101
-77.2025
-77.3072
-77.4264
-77.5655
-77.7317
-77.951
-78.3221
-79.3278
-76.9576
-76.9699
-76.9948
-77.0322
-77.0822
-77.1449
-77.22
-77.3067
-77.4045
-77.5143
-77.6394
-77.7799
-77.9386
-78.1176
-78.294
-77.073
-77.0846
-77.1081
-77.1433
-77.1904
-77.2494
-77.3198
-77.4008
-77.4912
-77.591
-77.7006
-77.8134
-77.9107
-77.9127
-77.4077
-77.1784
-77.1894
-77.2114
-77.2446
-77.2889
-77.3443
-77.4104
-77.4858
-77.5693
-77.6601
-77.7577
-77.8554
-77.9475
-78.0579
-78.4926
-77.2744
-77.2847
-77.3054
-77.3366
-77.3783
-77.4304
-77.4923
-77.5627
-77.6402
-77.7237
-77.8125
-77.8992
-77.9702
-77.9758
-77.6072
-77.3612
-77.371
-77.3905
-77.4199
-77.4591
-77.5081
-77.5662
-77.6323
-77.7047
-77.7829
-77.8669
-77.9519
-78.0369
-78.1516
-78.5725
-77.4395
-77.4487
-77.4671
-77.4948
-77.5317
-77.5779
-77.6326
-77.6948
-77.7631
-77.8374
-77.9184
-78.0024
-78.0817
-78.1125
-77.7729
-77.5095
-77.5182
-77.5356
-77.5617
-77.5966
-77.6401
-77.6919
-77.7506
-77.8154
-77.8864
-77.966
-78.054
-78.159
-78.3284
-78.8567
-77.5717
-77.5799
-77.5963
-77.621
-77.654
-77.6952
-77.7442
-77.7998
-77.8611
-77.9288
-78.0056
-78.0916
-78.1902
-78.2931
-78.2374
-77.6262
-77.634
-77.6496
-77.673
-77.7044
-77.7434
-77.7898
-77.8424
-77.9004
-77.9643
-78.0367
-78.1184
-78.2172
-78.3658
-78.7245
-77.6736
-77.681
-77.6958
-77.7181
-77.7479
-77.7851
-77.8291
-77.8789
-77.9334
-77.993
-78.0595
-78.1312
-78.2083
-78.2906
-78.3648
-77.7139
-77.721
-77.7352
-77.7565
-77.785
-77.8204
-77.8623
-77.9096
-77.9609
-78.0162
-78.0767
-78.1383
-78.1943
-78.219
-78.0812
-77.7475
-77.7543
-77.7679
-77.7884
-77.8157
-77.8498
-77.8899
-77.9349
-77.9834
-78.0353
-78.0911
-78.147
-78.2007
-78.2583
-78.4041
-77.7744
-77.781
-77.7942
-77.8141
-77.8405
-77.8734
-77.912
-77.9552
-78.0016
-78.0508
-78.1033
-78.1554
-78.2029
-78.2344
-78.1749
-77.795
-77.8014
-77.8143
-77.8336
-77.8594
-77.8914
-77.929
-77.9709
-78.0158
-78.0632
-78.114
-78.1649
-78.215
-78.2715
-78.3913
-77.8092
-77.8155
-77.8282
-77.8472
-77.8726
-77.904
-77.941
-77.9821
-78.0261
-78.0726
-78.1226
-78.1727
-78.2212
-78.2627
-78.2528
-77.8172
-77.8235
-77.8361
-77.8549
-77.8801
-77.9113
-77.948
-77.9889
-78.0326
-78.079
-78.1289
-78.1798
-78.231
-78.2875
-78.3767
-77.819
-77.8253
-77.8379
-77.8568
-77.882
-77.9133
-77.9501
-77.9912
-78.0352
-78.082
-78.1327
-78.1844
-78.2359
-78.2876
-78.3421
-77.8145
-77.8209
-77.8336
-77.8528
-77.8783
-77.91
-77.9473
-77.989
-78.0338
-78.0817
-78.1339
-78.1872
-78.2392
-78.2837
-78.2911
-77.8038
-77.8103
-77.8233
-77.8428
-77.8689
-77.9012
-77.9394
-77.9821
-78.0282
-78.0778
-78.1321
-78.1888
-78.2464
-78.3035
-78.3482
-77.7868
-77.7934
-77.8068
-77.8269
-77.8537
-77.887
-77.9263
-77.9704
-78.0182
-78.0698
-78.1269
-78.1876
-78.2527
-78.3298
-78.4608
-77.7632
-77.7701
-77.784
-77.8048
-77.8325
-77.8671
-77.9078
-77.9536
-78.0034
-78.0573
-78.1171
-78.1812
-78.2495
-78.3167
-78.3185
-77.733
-77.7402
-77.7547
-77.7764
-77.8053
-77.8413
-77.8838
-77.9316
-77.9836
-78.0399
-78.1024
-78.1698
-78.2456
-78.347
-78.572
-77.6959
-77.7035
-77.7186
-77.7414
-77.7718
-77.8095
-77.8541
-77.9043
-77.9588
-78.0176
-78.0822
-78.1506
-78.2226
-78.2896
-78.238
-77.6518
-77.6597
-77.6757
-77.6997
-77.7317
-77.7715
-77.8185
-77.8714
-77.9289
-77.9906
-78.0574
-78.1267
-78.2017
-78.3124
-78.6609
-77.6002
-77.6086
-77.6255
-77.6509
-77.6847
-77.7269
-77.7767
-77.833
-77.8941
-77.9594
-78.0288
-78.0968
-78.1547
-78.168
-77.9163
-77.5409
-77.5499
-77.5678
-77.5947
-77.6306
-77.6754
-77.7285
-77.7886
-77.8542
-77.9245
-77.9991
-78.072
-78.1373
-78.2055
-78.4555
-77.4736
-77.4831
-77.5021
-77.5307
-77.569
-77.6167
-77.6735
-77.738
-77.809
-77.8859
-77.9686
-78.0503
-78.1165
-78.1147
-77.7914
-77.3978
-77.4079
-77.4281
-77.4586
-77.4993
-77.5502
-77.6109
-77.6804
-77.7575
-77.8426
-77.9368
-78.0373
-78.1415
-78.2451
-78.3289
-77.3131
-77.3239
-77.3454
-77.3778
-77.4211
-77.4754
-77.5403
-77.6149
-77.6985
-77.7921
-77.8986
-78.0195
-78.1658
-78.387
-78.9494
-77.2191
-77.2305
-77.2534
-77.2879
-77.334
-77.3918
-77.4609
-77.5407
-77.6306
-77.7319
-77.8484
-77.982
-78.1366
-78.29
-78.1635
-77.1154
-77.1275
-77.1518
-77.1883
-77.2373
-77.2986
-77.3721
-77.457
-77.5526
-77.6603
-77.7842
-77.9279
-78.1069
-78.3853
-79.1361
-77.0013
-77.0142
-77.0399
-77.0786
-77.1305
-77.1956
-77.2734
-77.3632
-77.4641
-77.5768
-77.7043
-77.847
-78.0069
-78.1505
-77.8828
-76.8765
-76.8901
-76.9173
-76.9583
-77.0132
-77.0821
-77.1644
-77.2592
-77.3652
-77.4823
-77.6117
-77.7522
-77.9167
-78.1991
-79.2407
-76.7404
-76.7547
-76.7835
-76.8268
-76.8849
-76.9576
-77.0447
-77.1448
-77.2565
-77.3785
-77.5093
-77.6387
-77.7432
-77.7183
-76.8944
-76.5924
-76.6076
-76.6379
-76.6836
-76.7449
-76.8217
-76.9138
-77.0199
-77.1385
-77.268
-77.4057
-77.5403
-77.6581
-77.7903
-78.4535
-76.4321
-76.448
-76.48
-76.5281
-76.5927
-76.6737
-76.7711
-76.8839
-77.0108
-77.1509
-77.3022
-77.4514
-77.5617
-77.4914
-76.5516
-76.2589
-76.2756
-76.3091
-76.3597
-76.4275
-76.5129
-76.6157
-76.7355
-76.8717
-77.0253
-77.1982
-77.3875
-77.5892
-77.7942
-77.9688
-76.0722
-76.0897
-76.1248
-76.1777
-76.2488
-76.3383
-76.4464
-76.573
-76.7185
-76.8855
-77.0807
-77.3126
-77.613
-78.116
-79.5325
-75.8715
-75.8897
-75.9264
-75.9816
-76.0558
-76.1493
-76.2623
-76.395
-76.5481
-76.7255
-76.9356
-77.188
-77.4947
-77.8012
-77.4058
-75.6562
-75.6752
-75.7134
-75.7709
-75.848
-75.9452
-76.0625
-76.2001
-76.3586
-76.542
-76.7591
-77.0234
-77.3752
-77.9715
-79.7292
-75.4259
-75.4457
-75.4853
-75.5449
-75.6249
-75.7255
-75.8467
-75.9881
-76.1498
-76.3343
-76.5476
-76.7957
-77.0846
-77.3329
-76.5962
-75.18
-75.2005
-75.2416
-75.3034
-75.3862
-75.49
-75.6147
-75.7594
-75.923
-76.1058
-76.3099
-76.5376
-76.8208
-77.3762
-79.6792
-74.9181
-74.9393
-74.9818
-75.0457
-75.1313
-75.2385
-75.3668
-75.5149
-75.6807
-75.8618
-76.0537
-76.2386
-76.3666
-76.2035
-74.2388
-74.6395
-74.6615
-74.7055
-74.7716
-74.8601
-74.9708
-75.1032
-75.2557
-75.4256
-75.6095
-75.8002
-75.9768
-76.113
-76.2798
-77.6074
-74.3439
-74.3666
-74.4121
-74.4805
-74.5719
-74.6865
-74.8235
-74.9817
-75.1587
-75.3518
-75.5543
-75.741
-75.8367
-75.5477
-73.4288
-74.0308
-74.0542
-74.1012
-74.1718
-74.2664
-74.385
-74.5272
-74.6921
-74.8785
-75.0867
-75.3173
-75.566
-75.8262
-76.084
-76.2983
-73.6995
-73.7237
-73.7721
-73.8451
-73.9429
-74.0656
-74.2131
-74.3849
-74.5812
-74.8051
-75.0658
-75.3809
-75.8157
-76.6484
-79.3418
-73.3496
-73.3745
-73.4245
-73.4997
-73.6006
-73.7274
-73.88
-74.0582
-74.2625
-74.4974
-74.7743
-75.1104
-75.5275
-75.9181
-74.9181
-72.9807
-73.0063
-73.0576
-73.1351
-73.2391
-73.3698
-73.5273
-73.7108
-73.9204
-74.1597
-74.4394
-74.7815
-75.2562
-76.1514
-79.1876
-72.5922
-72.6184
-72.6711
-72.7506
-72.8575
-72.9922
-73.1544
-73.3427
-73.5556
-73.7932
-74.0592
-74.3584
-74.6913
-74.8956
-73.2506
-72.1838
-72.2105
-72.2642
-72.3456
-72.4554
-72.5941
-72.7613
-72.955
-73.1716
-73.4063
-73.654
-73.9095
-74.2144
-74.9217
-78.5356
-71.7551
-71.7821
-71.8367
-71.9196
-72.032
-72.1747
-72.3478
-72.5489
-72.7728
-73.0097
-73.2412
-73.4242
-73.4566
-72.927
-69.3184
-71.3059
-71.333
-71.3878
-71.4716
-71.5861
-71.7329
-71.9129
-72.1246
-72.3629
-72.6162
-72.8599
-73.0412
-73.0879
-73.0682
-74.6554
-70.8363
-70.863
-70.9173
-71.001
-71.1165
-71.2666
-71.454
-71.6794
-71.9406
-72.2288
-72.52
-72.7497
-72.7638
-72.0915
-68.6785
-70.3464
-70.3722
-70.4249
-70.5069
-70.6215
-70.7731
-70.9667
-71.207
-71.4975
-71.8386
-72.2207
-72.6058
-72.915
-73.0158
-72.7948
-69.8369
-69.8611
-69.9108
-69.9888
-70.0996
-70.2491
-70.4451
-70.6972
-71.0173
-71.4194
-71.9172
-72.5127
-73.2094
-74.1616
-76.7806
-69.309
-69.3307
-69.3755
-69.4467
-69.5495
-69.6914
-69.8827
-70.138
-70.4781
-70.9332
-71.5441
-72.3471
-73.3252
-74.1478
-72.888
-68.7645
-68.7827
-68.8205
-68.8815
-68.9711
-69.0979
-69.274
-69.5176
-69.857
-70.3383
-71.0356
-72.0578
-73.5476
-75.578
-77.8628
-68.2059
-68.2194
-68.248
-68.295
-68.3658
-68.4689
-68.6167
-68.8285
-69.1356
-69.5928
-70.2997
-71.4419
-73.3933
-76.8292
-81.9598
-67.6363
-67.6442
-67.6614
-67.6907
-67.7369
-67.8074
-67.9132
-68.0709
-68.308
-68.6735
-69.2598
-70.2622
-72.2069
-76.9014
-92.1277
-92.0348
-76.7725
-72.0082
-70.0392
-69.0415
-68.4721
-68.1261
-67.9074
-67.7658
-67.6734
-67.6135
-67.5753
-67.5518
-67.5385
-67.5325
-82.4623
-76.6648
-73.0769
-71.116
-70.0039
-69.3342
-68.9106
-68.6317
-68.4427
-68.3128
-68.2234
-68.1629
-68.1232
-68.0992
-68.088
-77.2446
-75.0212
-73.0144
-71.6012
-70.6575
-70.0248
-69.5931
-69.2916
-69.0769
-68.9227
-68.8123
-68.7347
-68.6822
-68.6498
-68.6343
-73.2833
-73.2255
-72.5382
-71.7584
-71.0935
-70.5751
-70.1835
-69.8891
-69.6672
-69.5007
-69.3773
-69.2879
-69.226
-69.1871
-69.1683
-69.3833
-71.8655
-72.125
-71.8337
-71.426
-71.0367
-70.7049
-70.4339
-70.2174
-70.0476
-69.9174
-69.8207
-69.7524
-69.7089
-69.6878
-73.0769
-72.0476
-72.0929
-71.9875
-71.7443
-71.4576
-71.1822
-70.9388
-70.7333
-70.5655
-70.4331
-70.3324
-70.2603
-70.2137
-70.191
-68.2113
-71.4819
-72.164
-72.2348
-72.0911
-71.87
-71.6354
-71.4152
-71.2211
-71.0576
-70.9254
-70.8232
-70.7488
-70.7005
-70.6767
-74.6539
-72.7121
-72.6583
-72.6288
-72.49
-72.2911
-72.0769
-71.8711
-71.6857
-71.5265
-71.3956
-71.2932
-71.218
-71.1687
-71.1444
-68.9106
-72.6296
-73.1343
-73.0964
-72.9288