/*--------------------------------*- C++ -*----------------------------------*\
| =========                 |                                                 |
| \\      /  F ield         | OpenFOAM: The Open Source CFD Toolbox           |
|  \\    /   O peration     | Version:  5.x                                   |
|   \\  /    A nd           | Web:      www.OpenFOAM.org                      |
|    \\/     M anipulation  |                                                 |
\*---------------------------------------------------------------------------*/
FoamFile
{
    version     2.0;
    format      ascii;
    class       volScalarField;
    location    "0.8";
    object      T;
}
// * * * * * * * * * * * * * * * * * * * * * * * * * * * * * * * * * * * * * //

dimensions      [0 0 0 1 0 0 0];

internalField   nonuniform List<scalar> 
6300
(
322.702
322.108
321.514
320.922
320.332
319.746
319.163
318.585
318.012
317.445
316.885
316.332
315.787
315.251
314.724
322.702
322.107
321.512
320.92
320.329
319.742
319.159
318.58
318.006
317.438
316.877
316.324
315.778
315.241
314.714
322.701
322.105
321.509
320.915
320.323
319.735
319.15
318.569
317.994
317.425
316.863
316.308
315.761
315.223
314.695
322.7
322.102
321.504
320.908
320.314
319.723
319.136
318.554
317.977
317.406
316.841
316.284
315.736
315.196
314.666
322.699
322.098
321.497
320.899
320.302
319.709
319.119
318.533
317.953
317.379
316.812
316.252
315.701
315.159
314.627
322.698
322.093
321.489
320.887
320.287
319.69
319.097
318.508
317.924
317.346
316.775
316.212
315.658
315.113
314.578
322.696
322.087
321.479
320.873
320.269
319.668
319.07
318.477
317.889
317.307
316.731
316.164
315.605
315.056
314.518
322.693
322.08
321.468
320.857
320.249
319.642
319.04
318.441
317.848
317.26
316.679
316.107
315.543
314.99
314.448
322.691
322.073
321.455
320.839
320.225
319.614
319.005
318.401
317.801
317.207
316.62
316.041
315.471
314.912
314.365
322.688
322.064
321.441
320.82
320.2
319.582
318.967
318.356
317.749
317.147
316.552
315.965
315.388
314.823
314.271
322.685
322.055
321.426
320.798
320.172
319.547
318.925
318.306
317.691
317.081
316.477
315.88
315.294
314.72
314.161
322.682
322.046
321.41
320.776
320.142
319.51
318.88
318.253
317.629
317.008
316.393
315.786
315.187
314.602
314.035
322.679
322.036
321.393
320.752
320.111
319.471
318.833
318.196
317.562
316.931
316.303
315.681
315.068
314.467
313.887
322.675
322.025
321.376
320.727
320.079
319.431
318.784
318.138
317.493
316.85
316.208
315.569
314.935
314.31
313.707
322.672
322.015
321.358
320.702
320.046
319.39
318.734
318.078
317.423
316.767
316.111
315.453
314.793
314.132
313.479
314.25
313.826
313.409
313.001
312.6
312.207
311.823
311.447
311.08
310.722
310.373
310.033
309.703
309.382
309.07
308.768
308.475
308.192
307.918
307.653
307.397
307.15
306.911
306.681
306.458
306.243
306.035
305.835
305.641
305.453
305.271
305.094
304.923
304.756
304.594
304.435
304.28
304.129
303.98
303.833
303.689
303.546
303.405
303.265
303.125
302.986
302.846
302.706
302.566
302.424
302.28
302.135
301.987
301.836
301.682
301.525
301.364
301.199
301.029
300.854
300.673
300.487
300.294
300.095
299.89
299.677
299.456
299.228
298.992
298.748
298.495
298.233
297.962
297.682
297.393
297.095
296.787
296.469
296.141
295.804
295.458
295.101
294.736
294.36
293.976
293.582
293.179
292.767
292.347
291.919
314.239
313.815
313.399
312.989
312.588
312.195
311.811
311.435
311.067
310.709
310.36
310.02
309.689
309.368
309.057
308.755
308.462
308.179
307.905
307.64
307.385
307.138
306.899
306.669
306.447
306.233
306.025
305.825
305.632
305.444
305.263
305.087
304.916
304.75
304.588
304.43
304.276
304.125
303.976
303.83
303.687
303.544
303.404
303.264
303.125
302.986
302.847
302.708
302.567
302.426
302.283
302.138
301.991
301.841
301.687
301.531
301.37
301.205
301.036
300.861
300.681
300.496
300.304
300.105
299.9
299.687
299.467
299.24
299.004
298.76
298.507
298.246
297.975
297.696
297.407
297.108
296.8
296.482
296.155
295.818
295.471
295.115
294.749
294.373
293.989
293.595
293.191
292.779
292.359
291.93
314.219
313.794
313.377
312.967
312.565
312.172
311.786
311.41
311.042
310.683
310.334
309.993
309.663
309.341
309.03
308.728
308.435
308.153
307.879
307.615
307.36
307.114
306.876
306.647
306.425
306.212
306.006
305.807
305.614
305.428
305.247
305.072
304.903
304.738
304.577
304.42
304.267
304.117
303.969
303.824
303.682
303.541
303.401
303.262
303.124
302.986
302.848
302.71
302.571
302.43
302.288
302.145
301.998
301.849
301.697
301.542
301.382
301.219
301.05
300.877
300.698
300.513
300.322
300.124
299.92
299.708
299.489
299.262
299.027
298.784
298.532
298.271
298.001
297.722
297.433
297.135
296.827
296.51
296.183
295.845
295.499
295.142
294.776
294.4
294.015
293.62
293.216
292.804
292.382
291.952
314.189
313.763
313.344
312.933
312.531
312.136
311.75
311.373
311.004
310.644
310.294
309.953
309.622
309.301
308.989
308.687
308.395
308.113
307.84
307.577
307.323
307.077
306.841
306.613
306.393
306.181
305.976
305.779
305.588
305.403
305.224
305.051
304.883
304.719
304.56
304.405
304.253
304.105
303.959
303.816
303.674
303.535
303.397
303.26
303.123
302.987
302.85
302.713
302.576
302.437
302.297
302.154
302.01
301.863
301.712
301.558
301.401
301.238
301.072
300.9
300.722
300.539
300.35
300.153
299.951
299.74
299.522
299.297
299.063
298.82
298.569
298.309
298.04
297.762
297.473
297.176
296.868
296.551
296.224
295.887
295.54
295.183
294.816
294.44
294.054
293.659
293.254
292.84
292.418
291.986
314.148
313.721
313.301
312.889
312.485
312.089
311.702
311.323
310.953
310.593
310.241
309.9
309.568
309.246
308.935
308.633
308.342
308.06
307.788
307.525
307.272
307.029
306.794
306.567
306.349
306.139
305.937
305.741
305.552
305.37
305.193
305.022
304.856
304.695
304.538
304.385
304.235
304.089
303.945
303.804
303.665
303.527
303.391
303.256
303.121
302.987
302.853
302.718
302.583
302.446
302.308
302.168
302.025
301.88
301.732
301.58
301.425
301.265
301.1
300.93
300.755
300.574
300.386
300.192
299.991
299.783
299.567
299.343
299.11
298.869
298.619
298.36
298.092
297.815
297.527
297.23
296.923
296.606
296.279
295.942
295.595
295.237
294.87
294.493
294.107
293.71
293.304
292.889
292.465
292.032
314.097
313.667
313.246
312.832
312.427
312.03
311.641
311.261
310.889
310.527
310.175
309.832
309.5
309.178
308.866
308.565
308.274
307.993
307.722
307.461
307.209
306.967
306.734
306.51
306.295
306.087
305.887
305.694
305.508
305.328
305.154
304.986
304.823
304.664
304.51
304.36
304.213
304.069
303.928
303.789
303.653
303.518
303.384
303.252
303.12
302.988
302.856
302.724
302.591
302.457
302.321
302.184
302.045
301.902
301.757
301.608
301.455
301.298
301.136
300.969
300.796
300.618
300.433
300.241
300.042
299.836
299.622
299.4
299.17
298.93
298.682
298.425
298.158
297.881
297.595
297.299
296.992
296.676
296.349
296.011
295.664
295.306
294.938
294.56
294.173
293.775
293.368
292.951
292.525
292.09
314.035
313.603
313.18
312.765
312.357
311.958
311.568
311.186
310.812
310.448
310.094
309.751
309.417
309.095
308.783
308.482
308.192
307.912
307.642
307.383
307.133
306.893
306.663
306.441
306.228
306.024
305.827
305.637
305.454
305.278
305.108
304.943
304.783
304.628
304.477
304.329
304.186
304.045
303.907
303.772
303.638
303.506
303.376
303.246
303.117
302.988
302.86
302.731
302.601
302.47
302.338
302.204
302.067
301.929
301.787
301.641
301.492
301.338
301.179
301.016
300.846
300.671
300.489
300.3
300.104
299.9
299.689
299.47
299.242
299.004
298.758
298.502
298.237
297.962
297.677
297.382
297.076
296.76
296.433
296.095
295.748
295.389
295.021
294.642
294.253
293.854
293.445
293.026
292.598
292.16
313.961
313.528
313.102
312.685
312.277
311.876
311.483
311.098
310.722
310.356
309.999
309.654
309.319
308.996
308.684
308.384
308.094
307.816
307.548
307.29
307.043
306.806
306.578
306.36
306.151
305.95
305.757
305.571
305.392
305.22
305.053
304.892
304.736
304.585
304.438
304.294
304.154
304.018
303.883
303.752
303.622
303.493
303.366
303.24
303.114
302.989
302.864
302.738
302.612
302.485
302.357
302.226
302.094
301.959
301.821
301.68
301.535
301.385
301.23
301.07
300.904
300.733
300.554
300.369
300.176
299.976
299.768
299.551
299.326
299.092
298.847
298.594
298.33
298.057
297.773
297.479
297.174
296.859
296.532
296.194
295.846
295.487
295.117
294.737
294.347
293.947
293.536
293.115
292.684
292.243
313.876
313.44
313.013
312.595
312.184
311.781
311.386
310.998
310.619
310.249
309.889
309.541
309.205
308.882
308.57
308.27
307.982
307.705
307.439
307.183
306.938
306.704
306.48
306.266
306.061
305.865
305.676
305.495
305.32
305.153
304.991
304.835
304.684
304.537
304.394
304.255
304.119
303.986
303.856
303.728
303.603
303.479
303.355
303.233
303.111
302.99
302.868
302.747
302.625
302.502
302.378
302.252
302.125
301.994
301.861
301.724
301.584
301.438
301.288
301.133
300.972
300.804
300.629
300.448
300.259
300.063
299.858
299.646
299.424
299.192
298.951
298.699
298.438
298.166
297.884
297.592
297.288
296.973
296.647
296.309
295.959
295.599
295.228
294.847
294.456
294.054
293.642
293.219
292.784
292.339
313.778
313.34
312.912
312.493
312.082
311.677
311.278
310.886
310.502
310.127
309.763
309.412
309.074
308.75
308.439
308.141
307.854
307.579
307.314
307.061
306.819
306.588
306.369
306.16
305.96
305.768
305.585
305.409
305.24
305.077
304.921
304.77
304.624
304.483
304.345
304.21
304.079
303.951
303.825
303.703
303.582
303.462
303.344
303.226
303.108
302.99
302.873
302.756
302.638
302.52
302.402
302.281
302.159
302.034
301.905
301.774
301.639
301.499
301.354
301.204
301.048
300.884
300.714
300.537
300.353
300.161
299.961
299.753
299.535
299.306
299.068
298.819
298.559
298.29
298.01
297.72
297.418
297.105
296.778
296.439
296.088
295.726
295.354
294.971
294.58
294.177
293.763
293.338
292.9
292.451
313.665
313.227
312.799
312.381
311.97
311.563
311.161
310.763
310.372
309.989
309.619
309.263
308.923
308.599
308.29
307.994
307.71
307.437
307.174
306.923
306.684
306.457
306.243
306.039
305.846
305.661
305.483
305.313
305.149
304.993
304.843
304.699
304.559
304.423
304.291
304.161
304.034
303.911
303.791
303.674
303.559
303.445
303.331
303.217
303.104
302.99
302.877
302.765
302.652
302.54
302.427
302.313
302.196
302.077
301.955
301.829
301.7
301.567
301.429
301.284
301.133
300.975
300.809
300.636
300.457
300.27
300.076
299.873
299.66
299.436
299.2
298.953
298.695
298.427
298.151
297.864
297.566
297.254
296.927
296.587
296.233
295.867
295.493
295.109
294.718
294.316
293.902
293.474
293.033
292.579
313.536
313.097
312.672
312.258
311.851
311.445
311.038
310.632
310.229
309.834
309.454
309.091
308.749
308.426
308.122
307.832
307.551
307.279
307.017
306.767
306.53
306.309
306.101
305.906
305.72
305.542
305.371
305.206
305.049
304.9
304.758
304.622
304.489
304.36
304.232
304.107
303.985
303.867
303.753
303.643
303.534
303.426
303.318
303.209
303.1
302.99
302.881
302.773
302.667
302.561
302.455
302.348
302.238
302.125
302.008
301.889
301.767
301.642
301.511
301.374
301.229
301.076
300.914
300.745
300.571
300.391
300.204
300.009
299.802
299.581
299.348
299.101
298.844
298.579
298.306
298.025
297.732
297.423
297.097
296.753
296.394
296.022
295.643
295.259
294.871
294.472
294.059
293.63
293.184
292.725
313.384
312.949
312.528
312.127
311.732
311.326
310.915
310.495
310.076
309.659
309.264
308.89
308.547
308.228
307.935
307.656
307.38
307.109
306.842
306.592
306.356
306.14
305.94
305.758
305.585
305.415
305.25
305.089
304.938
304.796
304.665
304.539
304.415
304.293
304.17
304.049
303.931
303.818
303.71
303.608
303.509
303.409
303.307
303.202
303.096
302.989
302.883
302.78
302.68
302.581
302.485
302.387
302.285
302.177
302.066
301.953
301.839
301.724
301.604
301.475
301.337
301.187
301.029
300.862
300.693
300.52
300.345
300.161
299.961
299.747
299.513
299.266
299.005
298.74
298.472
298.202
297.921
297.617
297.292
296.941
296.573
296.187
295.801
295.416
295.037
294.65
294.239
293.809
293.356
292.893
313.2
312.783
312.355
311.989
311.627
311.215
310.807
310.355
309.921
309.452
309.043
308.646
308.31
307.992
307.729
307.477
307.2
306.933
306.646
306.395
306.153
305.949
305.756
305.596
305.445
305.281
305.124
304.957
304.814
304.677
304.563
304.455
304.339
304.226
304.105
303.989
303.867
303.761
303.658
303.571
303.486
303.393
303.299
303.196
303.095
302.984
302.883
302.781
302.69
302.599
302.517
302.434
302.337
302.237
302.124
302.019
301.911
301.813
301.71
301.589
301.461
301.311
301.158
300.983
300.82
300.651
300.497
300.336
300.143
299.938
299.698
299.451
299.169
298.908
298.639
298.396
298.144
297.841
297.525
297.153
296.776
296.349
295.96
295.563
295.216
294.861
294.444
294.021
293.542
293.089
312.951
312.632
312.096
311.842
311.596
311.096
310.764
310.191
309.815
309.158
308.807
308.314
308.046
307.679
307.504
307.337
307.006
306.785
306.396
306.188
305.897
305.739
305.525
305.422
305.325
305.136
305.01
304.794
304.679
304.525
304.452
304.384
304.257
304.172
304.031
303.939
303.782
303.698
303.584
303.529
303.476
303.376
303.306
303.189
303.107
302.965
302.884
302.768
302.7
302.603
302.552
302.5
302.393
302.315
302.172
302.089
301.969
301.907
301.843
301.712
301.615
301.442
301.317
301.087
300.955
300.76
300.661
300.556
300.34
300.182
299.893
299.686
299.304
299.087
298.766
298.605
298.437
298.087
297.834
297.374
297.052
296.458
296.127
295.64
295.403
295.162
294.659
294.313
293.693
293.339
291.439
290.904
290.359
289.805
289.242
288.671
288.093
287.508
286.918
286.323
285.724
285.122
284.518
283.911
283.304
291.449
290.914
290.369
289.813
289.25
288.678
288.099
287.514
286.923
286.327
285.728
285.125
284.519
283.912
283.304
291.471
290.934
290.387
289.831
289.265
288.692
288.111
287.525
286.932
286.335
285.734
285.13
284.523
283.914
283.305
291.503
290.964
290.415
289.857
289.289
288.713
288.13
287.541
286.946
286.347
285.743
285.137
284.528
283.918
283.306
291.546
291.005
290.453
289.891
289.32
288.741
288.155
287.562
286.965
286.362
285.756
285.147
284.535
283.922
283.307
291.601
291.056
290.501
289.935
289.359
288.776
288.186
287.589
286.988
286.381
285.771
285.159
284.543
283.927
283.309
291.668
291.119
290.558
289.987
289.407
288.818
288.223
287.622
287.015
286.404
285.79
285.173
284.553
283.933
283.311
291.746
291.192
290.626
290.048
289.462
288.867
288.266
287.659
287.046
286.43
285.811
285.189
284.565
283.939
283.313
291.838
291.277
290.704
290.119
289.525
288.923
288.315
287.7
287.082
286.46
285.835
285.207
284.578
283.947
283.316
291.944
291.375
290.793
290.199
289.596
288.985
288.368
287.747
287.121
286.492
285.86
285.227
284.592
283.955
283.319
292.064
291.486
290.893
290.288
289.674
289.053
288.427
287.797
287.163
286.527
285.888
285.248
284.607
283.964
283.322
292.202
291.612
291.005
290.386
289.759
289.127
288.49
287.85
287.208
286.564
285.918
285.271
284.623
283.974
283.325
292.361
291.754
291.128
290.492
289.85
289.204
288.556
287.906
287.255
286.602
285.948
285.294
284.639
283.984
283.328
292.548
291.913
291.261
290.603
289.944
289.284
288.623
287.963
287.302
286.641
285.98
285.318
284.656
283.994
283.331
292.778
292.09
291.4
290.717
290.038
289.363
288.691
288.02
287.35
286.681
286.011
285.342
284.673
284.004
283.335
322.668
322.005
321.342
320.679
320.015
319.352
318.688
318.024
317.359
316.692
316.023
315.348
314.665
313.961
313.2
322.665
321.996
321.327
320.658
319.988
319.318
318.647
317.975
317.302
316.626
315.946
315.26
314.563
313.846
313.097
322.663
321.987
321.312
320.637
319.961
319.284
318.606
317.927
317.246
316.562
315.874
315.179
314.474
313.754
313.009
322.66
321.979
321.298
320.616
319.934
319.251
318.567
317.881
317.193
316.502
315.807
315.106
314.396
313.678
312.954
322.657
321.97
321.284
320.596
319.908
319.219
318.529
317.837
317.142
316.445
315.744
315.038
314.326
313.605
312.869
322.654
321.962
321.27
320.577
319.883
319.189
318.492
317.794
317.094
316.391
315.684
314.974
314.26
313.544
312.827
322.651
321.954
321.256
320.558
319.859
319.159
318.457
317.753
317.047
316.339
315.627
314.913
314.198
313.484
312.784
322.649
321.946
321.244
320.54
319.836
319.13
318.423
317.714
317.003
316.289
315.573
314.854
314.134
313.413
312.692
322.646
321.939
321.231
320.523
319.813
319.103
318.39
317.676
316.96
316.241
315.52
314.796
314.07
313.344
312.63
322.644
321.932
321.219
320.506
319.792
319.076
318.359
317.64
316.919
316.195
315.469
314.739
314.006
313.268
312.516
322.642
321.925
321.208
320.49
319.771
319.051
318.329
317.606
316.88
316.151
315.42
314.685
313.946
313.202
312.456
322.64
321.918
321.197
320.475
319.751
319.027
318.301
317.573
316.843
316.11
315.374
314.634
313.889
313.137
312.369
322.637
321.912
321.186
320.46
319.733
319.004
318.274
317.542
316.808
316.071
315.331
314.587
313.838
313.083
312.323
322.635
321.906
321.177
320.446
319.715
318.983
318.249
317.513
316.775
316.034
315.29
314.543
313.791
313.032
312.26
322.634
321.901
321.167
320.433
319.698
318.962
318.224
317.485
316.743
315.999
315.252
314.502
313.749
312.992
312.231
322.632
321.895
321.158
320.421
319.682
318.943
318.202
317.459
316.714
315.967
315.217
314.465
313.71
312.954
312.204
322.63
321.89
321.15
320.409
319.667
318.925
318.18
317.434
316.686
315.936
315.184
314.429
313.672
312.912
312.15
322.629
321.886
321.142
320.398
319.653
318.907
318.16
317.411
316.66
315.908
315.153
314.395
313.635
312.873
312.115
322.627
321.881
321.135
320.388
319.64
318.891
318.141
317.39
316.636
315.881
315.123
314.363
313.599
312.832
312.055
322.626
321.877
321.128
320.378
319.628
318.876
318.123
317.369
316.613
315.856
315.096
314.333
313.567
312.798
312.025
322.624
321.873
321.121
320.369
319.616
318.862
318.107
317.35
316.592
315.832
315.07
314.305
313.538
312.766
311.984
322.623
321.869
321.115
320.36
319.605
318.849
318.091
317.333
316.572
315.81
315.046
314.28
313.512
312.74
311.966
322.622
321.866
321.109
320.352
319.595
318.836
318.077
317.316
316.554
315.79
315.024
314.257
313.488
312.718
311.95
322.621
321.863
321.104
320.345
319.585
318.825
318.063
317.301
316.537
315.771
315.004
314.235
313.465
312.693
311.92
322.62
321.86
321.099
320.338
319.576
318.814
318.051
317.286
316.52
315.753
314.985
314.215
313.443
312.671
311.901
322.619
321.857
321.094
320.332
319.568
318.804
318.039
317.273
316.506
315.737
314.967
314.195
313.422
312.648
311.87
322.618
321.854
321.09
320.326
319.56
318.795
318.028
317.26
316.492
315.722
314.95
314.177
313.403
312.627
311.852
322.617
321.852
321.086
320.32
319.553
318.786
318.018
317.249
316.479
315.707
314.935
314.16
313.384
312.605
311.821
322.617
321.85
321.082
320.315
319.547
318.778
318.009
317.238
316.467
315.694
314.92
314.145
313.368
312.588
311.806
322.616
321.848
321.079
320.31
319.541
318.771
318
317.229
316.456
315.682
314.908
314.131
313.353
312.572
311.786
322.615
321.846
321.076
320.306
319.535
318.764
317.992
317.22
316.446
315.672
314.896
314.119
313.34
312.56
311.778
322.615
321.844
321.073
320.302
319.53
318.758
317.985
317.212
316.437
315.662
314.885
314.108
313.329
312.549
311.771
322.614
321.842
321.07
320.298
319.525
318.752
317.979
317.204
316.429
315.653
314.876
314.098
313.319
312.539
311.757
322.614
321.841
321.068
320.295
319.521
318.747
317.973
317.197
316.421
315.645
314.867
314.088
313.309
312.529
311.749
322.613
321.84
321.066
320.292
319.517
318.743
317.967
317.191
316.415
315.637
314.859
314.08
313.3
312.519
311.737
322.613
321.838
321.064
320.289
319.514
318.738
317.962
317.186
316.408
315.631
314.852
314.072
313.292
312.511
311.729
322.612
321.837
321.062
320.287
319.511
318.735
317.958
317.181
316.403
315.625
314.845
314.065
313.284
312.502
311.718
322.612
321.836
321.061
320.284
319.508
318.731
317.954
317.177
316.398
315.619
314.84
314.059
313.278
312.495
311.712
322.612
321.836
321.059
320.283
319.506
318.729
317.951
317.173
316.394
315.615
314.835
314.054
313.272
312.49
311.705
322.612
321.835
321.058
320.281
319.504
318.726
317.948
317.169
316.39
315.611
314.831
314.05
313.268
312.485
311.702
322.611
321.834
321.057
320.28
319.502
318.724
317.945
317.167
316.387
315.607
314.827
314.046
313.264
312.482
311.7
322.611
321.834
321.056
320.278
319.5
318.722
317.943
317.164
316.385
315.605
314.824
314.043
313.261
312.479
311.696
322.611
321.833
321.056
320.277
319.499
318.721
317.942
317.162
316.383
315.602
314.822
314.04
313.259
312.476
311.694
322.611
321.833
321.055
320.277
319.498
318.72
317.941
317.161
316.381
315.601
314.82
314.038
313.257
312.474
311.691
322.611
321.833
321.055
320.276
319.498
318.719
317.94
317.16
316.38
315.599
314.819
314.037
313.255
312.473
311.69
322.611
321.833
321.054
320.276
319.497
318.718
317.939
317.159
316.379
315.599
314.818
314.036
313.254
312.472
311.688
322.611
321.833
321.054
320.276
319.497
318.718
317.939
317.159
316.379
315.599
314.818
314.036
313.254
312.471
311.688
322.611
321.833
321.055
320.276
319.497
318.719
317.939
317.16
316.379
315.599
314.818
314.036
313.254
312.471
311.688
322.611
321.833
321.055
320.276
319.498
318.719
317.94
317.16
316.38
315.6
314.819
314.037
313.255
312.472
311.689
322.611
321.833
321.055
320.277
319.499
318.72
317.941
317.161
316.382
315.601
314.82
314.039
313.256
312.473
311.69
322.611
321.834
321.056
320.278
319.5
318.721
317.942
317.163
316.383
315.603
314.822
314.041
313.259
312.476
311.692
322.611
321.834
321.057
320.279
319.501
318.723
317.944
317.165
316.386
315.605
314.825
314.043
313.261
312.478
311.694
322.612
321.835
321.057
320.28
319.503
318.725
317.946
317.168
316.388
315.608
314.828
314.047
313.265
312.482
311.699
322.612
321.835
321.059
320.282
319.505
318.727
317.949
317.171
316.392
315.612
314.832
314.051
313.269
312.487
311.703
322.612
321.836
321.06
320.283
319.507
318.73
317.952
317.174
316.396
315.616
314.836
314.056
313.274
312.493
311.711
322.612
321.837
321.061
320.286
319.509
318.733
317.956
317.178
316.4
315.621
314.842
314.061
313.28
312.499
311.716
322.613
321.838
321.063
320.288
319.512
318.736
317.96
317.183
316.405
315.627
314.848
314.067
313.287
312.505
311.724
322.613
321.839
321.065
320.29
319.516
318.74
317.965
317.188
316.411
315.633
314.854
314.074
313.293
312.512
311.729
322.613
321.84
321.067
320.293
319.519
318.745
317.97
317.194
316.418
315.64
314.862
314.082
313.301
312.519
311.734
322.614
321.842
321.069
320.297
319.524
318.75
317.976
317.201
316.425
315.648
314.87
314.091
313.311
312.528
311.745
322.614
321.843
321.072
320.3
319.528
318.755
317.982
317.208
316.433
315.657
314.88
314.101
313.321
312.539
311.754
322.615
321.845
321.075
320.304
319.533
318.762
317.989
317.216
316.442
315.667
314.89
314.113
313.334
312.553
311.77
322.616
321.847
321.078
320.308
319.539
318.768
317.997
317.225
316.452
315.678
314.902
314.125
313.347
312.567
311.783
322.616
321.849
321.081
320.313
319.545
318.776
318.006
317.235
316.463
315.689
314.915
314.139
313.362
312.584
311.808
322.617
321.851
321.085
320.318
319.551
318.783
318.015
317.245
316.474
315.702
314.929
314.154
313.378
312.601
311.822
322.618
321.853
321.089
320.324
319.558
318.792
318.025
317.257
316.487
315.716
314.944
314.17
313.395
312.619
311.845
322.619
321.856
321.093
320.33
319.566
318.801
318.036
317.269
316.501
315.732
314.961
314.188
313.413
312.636
311.857
322.62
321.859
321.098
320.336
319.574
318.811
318.048
317.282
316.516
315.748
314.978
314.207
313.432
312.654
311.87
322.621
321.862
321.103
320.343
319.583
318.822
318.06
317.297
316.532
315.766
314.998
314.227
313.454
312.677
311.898
322.622
321.865
321.108
320.351
319.593
318.834
318.074
317.313
316.55
315.785
315.019
314.25
313.479
312.703
311.919
322.623
321.869
321.114
320.359
319.603
318.846
318.089
317.329
316.569
315.806
315.042
314.276
313.506
312.734
311.96
322.624
321.872
321.12
320.367
319.614
318.86
318.104
317.347
316.589
315.829
315.067
314.303
313.536
312.766
311.989
322.625
321.876
321.127
320.377
319.626
318.874
318.121
317.367
316.611
315.853
315.093
314.332
313.569
312.805
312.045
322.627
321.88
321.134
320.386
319.638
318.889
318.139
317.387
316.634
315.878
315.121
314.362
313.602
312.84
312.076
322.628
321.885
321.141
320.397
319.651
318.905
318.158
317.409
316.658
315.905
315.151
314.394
313.636
312.878
312.125
322.63
321.89
321.149
320.407
319.665
318.922
318.178
317.432
316.684
315.934
315.182
314.428
313.671
312.911
312.149
322.632
321.894
321.157
320.419
319.68
318.94
318.199
317.456
316.711
315.964
315.215
314.463
313.707
312.947
312.174
322.633
321.9
321.166
320.431
319.696
318.959
318.221
317.482
316.74
315.996
315.25
314.501
313.748
312.99
312.23
322.635
321.905
321.175
320.444
319.712
318.979
318.245
317.509
316.771
316.03
315.287
314.542
313.792
313.036
312.269
322.637
321.911
321.185
320.458
319.73
319.001
318.27
317.537
316.803
316.066
315.327
314.585
313.84
313.091
312.342
322.639
321.917
321.195
320.472
319.748
319.023
318.296
317.568
316.837
316.104
315.369
314.631
313.891
313.147
312.392
322.641
321.924
321.206
320.487
319.767
319.046
318.324
317.599
316.873
316.144
315.413
314.679
313.944
313.21
312.486
322.644
321.93
321.217
320.503
319.787
319.071
318.353
317.633
316.91
316.185
315.458
314.728
313.997
313.266
312.536
322.646
321.937
321.229
320.519
319.809
319.097
318.383
317.668
316.95
316.229
315.505
314.778
314.05
313.323
312.608
322.648
321.945
321.241
320.536
319.831
319.124
318.415
317.705
316.991
316.275
315.554
314.83
314.102
313.372
312.642
322.651
321.952
321.254
320.554
319.854
319.152
318.449
317.743
317.035
316.323
315.607
314.885
314.156
313.42
312.673
322.653
321.96
321.267
320.573
319.878
319.182
318.484
317.784
317.081
316.375
315.663
314.944
314.216
313.477
312.733
322.656
321.969
321.281
320.592
319.903
319.213
318.521
317.827
317.131
316.43
315.724
315.009
314.283
313.538
312.771
322.659
321.977
321.295
320.612
319.929
319.245
318.559
317.872
317.183
316.49
315.791
315.084
314.362
313.616
312.825
322.662
321.985
321.309
320.632
319.955
319.277
318.599
317.919
317.238
316.553
315.864
315.168
314.459
313.724
312.921
293.057
292.255
291.522
290.815
290.121
289.434
288.752
288.072
287.393
286.716
286.04
285.364
284.688
284.013
283.338
293.147
292.357
291.614
290.895
290.191
289.495
288.805
288.117
287.432
286.748
286.066
285.384
284.702
284.021
283.34
293.188
292.426
291.688
290.966
290.256
289.553
288.855
288.161
287.469
286.779
286.091
285.403
284.716
284.03
283.343
293.214
292.479
291.75
291.028
290.315
289.607
288.903
288.203
287.505
286.81
286.115
285.422
284.73
284.038
283.346
293.243
292.528
291.806
291.086
290.369
289.657
288.949
288.243
287.54
286.839
286.139
285.44
284.743
284.045
283.348
293.302
292.582
291.861
291.14
290.421
289.705
288.992
288.281
287.573
286.867
286.162
285.458
284.755
284.053
283.351
293.345
292.636
291.915
291.193
290.471
289.751
289.033
288.318
287.605
286.894
286.184
285.475
284.767
284.06
283.353
293.426
292.698
291.971
291.245
290.519
289.795
289.073
288.353
287.635
286.919
286.205
285.492
284.779
284.067
283.356
293.48
292.758
292.027
291.296
290.565
289.837
289.111
288.387
287.665
286.944
286.225
285.507
284.79
284.074
283.358
293.579
292.825
292.083
291.345
290.61
289.878
289.147
288.419
287.693
286.968
286.245
285.522
284.801
284.08
283.36
293.632
292.884
292.137
291.393
290.654
289.917
289.182
288.45
287.719
286.99
286.263
285.537
284.811
284.087
283.362
293.709
292.941
292.187
291.439
290.695
289.954
289.215
288.479
287.745
287.012
286.281
285.55
284.821
284.092
283.364
293.749
292.989
292.233
291.481
290.733
289.989
289.247
288.507
287.769
287.032
286.297
285.564
284.831
284.098
283.366
293.807
293.035
292.275
291.52
290.77
290.022
289.276
288.533
287.792
287.052
286.313
285.576
284.839
284.103
283.368
293.833
293.072
292.313
291.557
290.804
290.053
289.305
288.558
287.813
287.07
286.329
285.588
284.848
284.108
283.369
293.858
293.106
292.349
291.591
290.836
290.082
289.331
288.582
287.834
287.088
286.343
285.599
284.856
284.113
283.371
293.908
293.145
292.384
291.624
290.866
290.11
289.356
288.604
287.853
287.104
286.356
285.61
284.863
284.118
283.373
293.941
293.182
292.419
291.656
290.895
290.137
289.38
288.625
287.872
287.12
286.369
285.619
284.871
284.122
283.374
293.999
293.221
292.452
291.686
290.923
290.161
289.402
288.645
287.889
287.135
286.381
285.629
284.877
284.126
283.375
294.029
293.255
292.483
291.714
290.948
290.185
289.423
288.663
287.905
287.148
286.393
285.638
284.884
284.13
283.377
294.071
293.287
292.512
291.74
290.972
290.206
289.443
288.681
287.92
287.161
286.403
285.646
284.889
284.133
283.378
294.093
293.313
292.537
291.764
290.994
290.227
289.461
288.697
287.934
287.173
286.413
285.654
284.895
284.137
283.379
294.122
293.337
292.56
291.786
291.014
290.245
289.478
288.712
287.948
287.184
286.422
285.661
284.9
284.14
283.38
294.135
293.356
292.58
291.805
291.033
290.262
289.493
288.726
287.96
287.195
286.431
285.668
284.905
284.143
283.381
294.147
293.374
292.598
291.823
291.05
290.278
289.508
288.739
287.971
287.204
286.439
285.674
284.909
284.146
283.382
294.171
293.392
292.616
291.84
291.065
290.292
289.521
288.751
287.981
287.213
286.446
285.68
284.914
284.148
283.383
294.186
293.41
292.632
291.855
291.08
290.306
289.533
288.762
287.991
287.222
286.453
285.685
284.917
284.15
283.383
294.212
293.428
292.648
291.87
291.093
290.318
289.544
288.772
288
287.229
286.459
285.69
284.921
284.152
283.384
294.225
293.443
292.662
291.883
291.105
290.329
289.555
288.781
288.008
287.236
286.465
285.694
284.924
284.154
283.385
294.242
293.457
292.675
291.895
291.117
290.34
289.564
288.789
288.015
287.242
286.47
285.698
284.927
284.156
283.385
294.251
293.468
292.686
291.905
291.127
290.349
289.572
288.797
288.022
287.248
286.475
285.702
284.93
284.158
283.386
294.263
293.478
292.695
291.915
291.135
290.357
289.58
288.804
288.028
287.253
286.479
285.706
284.932
284.159
283.386
294.268
293.486
292.704
291.923
291.143
290.365
289.587
288.81
288.034
287.258
286.483
285.709
284.935
284.161
283.387
294.273
293.492
292.711
291.93
291.15
290.371
289.593
288.816
288.039
287.262
286.487
285.711
284.937
284.162
283.387
294.282
293.499
292.718
291.937
291.157
290.377
289.599
288.821
288.043
287.266
286.49
285.714
284.938
284.163
283.388
294.287
293.505
292.724
291.943
291.162
290.382
289.603
288.825
288.047
287.27
286.493
285.716
284.94
284.164
283.388
294.295
293.512
292.729
291.948
291.167