/*--------------------------------*- C++ -*----------------------------------*\
| =========                 |                                                 |
| \\      /  F ield         | OpenFOAM: The Open Source CFD Toolbox           |
|  \\    /   O peration     | Version:  5.x                                   |
|   \\  /    A nd           | Web:      www.OpenFOAM.org                      |
|    \\/     M anipulation  |                                                 |
\*---------------------------------------------------------------------------*/
FoamFile
{
    version     2.0;
    format      ascii;
    class       volScalarField;
    location    "5";
    object      gradTy;
}
// * * * * * * * * * * * * * * * * * * * * * * * * * * * * * * * * * * * * * //

dimensions      [0 -1 0 1 0 0 0];

internalField   nonuniform List<scalar> 
6300
(
32273.6
32220.9
32168.2
32115.6
32063
32010.5
31958.1
31905.8
31853.7
31801.7
31749.9
31698.3
31646.9
31595.7
31544.8
-0.0140704
-0.0422754
-0.0706599
-0.0993059
-0.128224
-0.15733
-0.186422
-0.215177
-0.243152
-0.269816
-0.294626
-0.31713
-0.337116
-0.354772
-0.370806
-0.0233689
-0.0702435
-0.117476
-0.165218
-0.213514
-0.262249
-0.311102
-0.359527
-0.406747
-0.451803
-0.493665
-0.531419
-0.564531
-0.593168
-0.618484
-0.0325505
-0.097862
-0.163768
-0.230553
-0.29834
-0.36702
-0.436179
-0.505045
-0.572464
-0.63694
-0.696765
-0.750297
-0.79637
-0.834842
-0.86715
-0.0415295
-0.124904
-0.209203
-0.294912
-0.382305
-0.471349
-0.561589
-0.652056
-0.741179
-0.826786
-0.906225
-0.976701
-1.03588
-1.08278
-1.11877
-0.0501749
-0.150999
-0.253205
-0.357563
-0.464598
-0.574455
-0.68675
-0.800385
-0.913385
-1.02278
-1.12463
-1.21437
-1.28764
-1.34159
-1.37672
-0.0583461
-0.175714
-0.295059
-0.417547
-0.544079
-0.67514
-0.810586
-0.949369
-1.08922
-1.22633
-1.35515
-1.46855
-1.55873
-1.6192
-1.64789
-0.0658477
-0.198461
-0.333788
-0.473507
-0.619056
-0.77147
-0.931117
-1.09732
-1.26784
-1.43821
-1.6011
-1.74595
-1.85954
-1.92855
-1.94478
-0.072435
-0.218502
-0.368139
-0.523651
-0.687189
-0.860592
-1.04512
-1.24098
-1.44661
-1.65758
-1.8651
-2.05457
-2.20486
-2.29056
-2.29
-0.0778273
-0.234977
-0.396623
-0.565783
-0.745472
-0.93861
-1.1478
-1.37489
-1.62007
-1.88036
-2.1471
-2.40228
-2.61464
-2.73865
-2.72422
-0.0817255
-0.246962
-0.417601
-0.597399
-0.790323
-1.00059
-1.23261
-1.49071
-1.77839
-2.09667
-2.44058
-2.79268
-3.11257
-3.32499
-3.32146
-0.0838398
-0.253548
-0.429429
-0.615901
-0.817846
-1.04084
-1.29136
-1.57694
-1.90609
-2.28727
-2.72575
-3.21515
-3.71779
-4.12718
-4.22269
-0.0839274
-0.253966
-0.430678
-0.618943
-0.824341
-1.05357
-1.31503
-1.6196
-1.98171
-2.42046
-2.95987
-3.62422
-4.41621
-5.24329
-5.72326
-0.0818334
-0.247716
-0.420386
-0.604867
-0.807021
-1.0341
-1.29561
-1.6047
-1.98061
-2.45289
-3.06893
-3.90558
-5.07961
-6.70684
-8.51477
-0.0775261
-0.234685
-0.398296
-0.573138
-0.764797
-0.980223
-1.22861
-1.52296
-1.88304
-2.34145
-2.95726
-3.8496
-5.29017
-7.99015
-14.1051
31498.3
31456.2
31414.3
31372.6
31331.1
31289.7
31248.6
31207.8
31167.2
31126.8
31086.7
31047
31007.6
30968.5
30929.8
30891.5
30853.5
30816
30778.9
30742.2
30705.9
30670.1
30634.6
30599.6
30565
30530.8
30496.9
30463.5
30430.4
30397.7
30365.3
30333.3
30301.6
30270.2
30239.1
30208.3
30177.8
30147.5
30117.6
30087.9
30058.5
30029.3
30000.5
29971.9
29943.5
29915.5
29887.7
29860.2
29832.9
29805.9
29779.1
29752.6
29726.3
29700.3
29674.4
29648.8
29623.3
29598.1
29572.9
29548
29523.2
29498.5
29473.9
29449.4
29425
29400.6
29376.4
29352.1
29328
29303.8
29279.6
29255.5
29231.3
29207.1
29182.9
29158.6
29134.3
29109.9
29085.4
29060.8
29036.1
29011.3
28986.3
28961.2
28936
28910.6
28885
28859.3
28833.4
28807.3
-0.385192
-0.399187
-0.415262
-0.434555
-0.458011
-0.486215
-0.519262
-0.556713
-0.597628
-0.640689
-0.684378
-0.727173
-0.767714
-0.804911
-0.837974
-0.866375
-0.889773
-0.907939
-0.920709
-0.927981
-0.929745
-0.926137
-0.917465
-0.904219
-0.887044
-0.866683
-0.843933
-0.8196
-0.794472
-0.769309
-0.744823
-0.721646
-0.700296
-0.681136
-0.664361
-0.650008
-0.637998
-0.628183
-0.620395
-0.61446
-0.610186
-0.607315
-0.605474
-0.604144
-0.602661
-0.600267
-0.596189
-0.589737
-0.580386
-0.567834
-0.552013
-0.533066
-0.511294
-0.487102
-0.460952
-0.433329
-0.404717
-0.375575
-0.346311
-0.317242
-0.288576
-0.260395
-0.23267
-0.2053
-0.17816
-0.151144
-0.124193
-0.0972961
-0.0704651
-0.04371
-0.0170164
0.00965514
0.03635
0.063088
0.0898347
0.116489
0.142895
0.168867
0.194225
0.218815
0.242507
0.26517
0.286632
0.306643
0.324856
0.340836
0.354098
0.364163
0.370613
0.373143
-0.640706
-0.662227
-0.687243
-0.717928
-0.756122
-0.802994
-0.85879
-0.922717
-0.99302
-1.06722
-1.14247
-1.21598
-1.28531
-1.34858
-1.40455
-1.45245
-1.49183
-1.52238
-1.54384
-1.55598
-1.55872
-1.55222
-1.537
-1.51391
-1.4841
-1.44891
-1.40972
-1.36791
-1.32482
-1.28175
-1.23994
-1.2005
-1.16434
-1.13209
-1.10408
-1.08029
-1.06051
-1.04442
-1.03172
-1.02214
-1.01543
-1.01125
-1.00901
-1.00785
-1.00658
-1.00382
-0.998123
-0.988199
-0.973092
-0.952277
-0.925681
-0.893619
-0.85668
-0.815616
-0.771251
-0.724432
-0.676004
-0.626779
-0.577485
-0.528699
-0.48078
-0.433843
-0.387782
-0.342352
-0.297272
-0.252328
-0.207419
-0.162559
-0.117814
-0.0732325
-0.0287922
0.015603
0.0600778
0.10471
0.149462
0.194149
0.238464
0.28205
0.324573
0.36578
0.405493
0.443557
0.479745
0.51367
0.544738
0.572164
0.59505
0.612499
0.623738
0.628218
-0.894181
-0.920095
-0.95092
-0.990346
-1.04159
-1.10678
-1.18646
-1.27939
-1.38265
-1.49208
-1.60294
-1.71067
-1.81146
-1.90263
-1.9826
-2.05064
-2.10645
-2.14978
-2.18024
-2.19738
-2.20084
-2.19072
-2.16771
-2.13312
-2.08877
-2.03674
-1.97911
-1.91789
-1.85499
-1.79224
-1.73149
-1.67446
-1.62258
-1.57681
-1.53755
-1.50464
-1.47754
-1.45563
-1.43839
-1.42554
-1.4169
-1.41222
-1.41084
-1.41155
-1.41252
-1.41146
-1.40599
-1.39398
-1.37387
-1.3449
-1.30708
-1.26105
-1.20786
-1.14874
-1.08495
-1.01772
-0.948303
-0.877945
-0.807793
-0.738773
-0.671438
-0.605898
-0.541857
-0.478771
-0.416065
-0.353335
-0.290452
-0.227534
-0.164807
-0.102432
-0.0403853
0.0215523
0.083693
0.146273
0.209293
0.27245
0.335191
0.396868
0.456918
0.514991
0.570947
0.624736
0.676204
0.724894
0.769943
0.810105
0.843906
0.869857
0.886677
0.893468
-1.1459
-1.17107
-1.2024
-1.24595
-1.3072
-1.38992
-1.49529
-1.62146
-1.76369
-1.91516
-2.06822
-2.21565
-2.35181
-2.47316
-2.5782
-2.66682
-2.73942
-2.79609
-2.83625
-2.85887
-2.86296
-2.84823
-2.81553
-2.76683
-2.70497
-2.63309
-2.55416
-2.4708
-2.3854
-2.30036
-2.2182
-2.14151
-2.07252
-2.01269
-1.96242
-1.92113
-1.88763
-1.86063
-1.83928
-1.82339
-1.81321
-1.80896
-1.81021
-1.81543
-1.82188
-1.82598
-1.82381
-1.81193
-1.78794
-1.75079
-1.7008
-1.63929
-1.56809
-1.4891
-1.40406
-1.31462
-1.22243
-1.12928
-1.03693
-0.946864
-0.859947
-0.77622
-0.694974
-0.61505
-0.535289
-0.454949
-0.373912
-0.2926
-0.211647
-0.131501
-0.052153
0.0268879
0.106366
0.186902
0.268638
0.351073
0.433184
0.51377
0.591865
0.667016
0.739293
0.80904
0.876455
0.941165
1.002
1.05703
1.10389
1.1402
1.16393
1.17367
-1.39682
-1.41311
-1.43621
-1.47601
-1.54181
-1.64036
-1.77412
-1.94034
-2.13135
-2.33592
-2.54155
-2.73682
-2.91344
-3.06714
-3.19739
-3.30604
-3.39531
-3.46613
-3.51751
-3.54703
-3.55215
-3.53163
-3.48636
-3.41948
-3.3356
-3.23959
-3.13558
-3.02666
-2.91533
-2.80431
-2.69704
-2.59748
-2.5093
-2.4348
-2.37437
-2.32645
-2.28837
-2.25751
-2.23235
-2.21303
-2.201
-2.19781
-2.2039
-2.21754
-2.23469
-2.24953
-2.25564
-2.24737
-2.22097
-2.17519
-2.11114
-2.03151
-1.93957
-1.83818
-1.72956
-1.6155
-1.49798
-1.37947
-1.26279
-1.15045
-1.04388
-0.94299
-0.846205
-0.751109
-0.655361
-0.557579
-0.457778
-0.357157
-0.257331
-0.159425
-0.0634801
0.0315938
0.127515
0.225804
0.326977
0.430168
0.533378
0.634263
0.731061
0.823187
0.911289
0.996712
1.08061
1.16303
1.24242
1.31573
1.37909
1.42866
1.4613
1.47491
-1.65054
-1.64528
-1.64591
-1.66852
-1.72913
-1.83999
-2.00609
-2.22342
-2.47934
-2.75505
-3.02965
-3.28473
-3.50794
-3.69474
-3.84756
-3.97303
-4.07761
-4.16403
-4.23011
-4.27017
-4.27813
-4.25049
-4.18816
-4.09647
-3.98355
-3.85746
-3.72392
-3.58581
-3.44464
-3.30272
-3.16462
-3.03692
-2.92619
-2.83651
-2.76812
-2.71741
-2.67858
-2.64601
-2.61682
-2.59204
-2.57586
-2.57315
-2.58654
-2.61443
-2.65064
-2.68549
-2.70802
-2.70874
-2.68174
-2.62574
-2.54372
-2.44132
-2.32448
-2.19752
-2.0627
-1.9212
-1.7748
-1.62687
-1.48224
-1.34555
-1.21948
-1.10368
-0.994839
-0.887947
-0.778204
-0.662961
-0.542671
-0.420416
-0.3001
-0.184375
-0.0734017
0.0352297
0.145401
0.260696
0.382549
0.509372
0.637053
0.760775
0.87711
0.985281
1.08727
1.1867
1.287
1.38936
1.49169
1.58885
1.67425
1.74161
1.78616
1.80491
-1.9152
-1.8688
-1.82372
-1.80603
-1.84376
-1.9597
-2.16386
-2.45053
-2.79839
-3.17536
-3.54541
-3.87804
-4.15441
-4.37074
-4.5366
-4.66954
-4.78553
-4.89067
-4.97961
-5.03894
-5.05479
-5.01871
-4.9316
-4.8034
-4.6498
-4.48542
-4.31814
-4.14872
-3.97435
-3.79493
-3.61651
-3.45121
-3.31204
-3.20686
-3.13568
-3.09056
-3.05902
-3.02889
-2.99422
-2.9579
-2.93056
-2.92458
-2.94752
-2.99859
-3.0678
-3.13842
-3.19105
-3.20929
-3.18354
-3.11302
-3.0049
-2.87117
-2.72324
-2.56746
-2.40474
-2.23326
-2.05309
-1.86885
-1.68955
-1.52467
-1.37963
-1.25369
-1.14001
-1.02825
-0.908334
-0.774992
-0.62979
-0.48029
-0.335682
-0.201915
-0.0793955
0.0371931
0.156444
0.286662
0.431468
0.587826
0.746898
0.898378
1.03536
1.15671
1.26735
1.37585
1.4908
1.61611
1.74876
1.87927
1.99567
2.08772
2.14843
2.17403
-2.20768
-2.09009
-1.96168
-1.86323
-1.84519
-1.95164
-2.20206
-2.58867
-3.07467
-3.60471
-4.11415
-4.55141
-4.88633
-5.11839
-5.27197
-5.38936
-5.50789
-5.63944
-5.77052
-5.86909
-5.90494
-5.8591
-5.73286
-5.54555
-5.33018
-5.11614
-4.914
-4.71726
-4.50988
-4.28417
-4.04799
-3.82636
-3.64737
-3.52668
-3.46412
-3.44254
-3.43583
-3.41671
-3.37234
-3.30922
-3.25284
-3.23271
-3.26634
-3.35498
-3.48126
-3.61561
-3.72195
-3.77155
-3.74813
-3.65284
-3.50135
-3.31986
-3.13172
-2.94578
-2.75783
-2.55629
-2.3357
-2.10218
-1.87458
-1.67375
-1.51081
-1.38462
-1.28099
-1.17889
-1.05642
-0.902757
-0.721779
-0.531836
-0.3544
-0.202038
-0.0756551
0.0364925
0.152836
0.292737
0.464832
0.66342
0.868685
1.05784
1.21706
1.34447
1.45139
1.55659
1.68051
1.83308
2.00965
2.19072
2.35284
2.47959
2.56185
2.59653
-2.56133
-2.32658
-2.05609
-1.8042
-1.66684
-1.73566
-2.04337
-2.58284
-3.28662
-4.06275
-4.78579
-5.37112
-5.76529
-5.97791
-6.05828
-6.10629
-6.21024
-6.38758
-6.60688
-6.78819
-6.8713
-6.81383
-6.6206
-6.3266
-6.00706
-5.72815
-5.50044
-5.29948
-5.07014
-4.7868
-4.45682
-4.13837
-3.897
-3.76099
-3.73175
-3.77127
-3.82871
-3.83902
-3.77561
-3.64898
-3.52103
-3.46153
-3.50407
-3.65524
-3.88121
-4.13124
-4.33265
-4.43705
-4.41433
-4.27167
-4.03909
-3.77627
-3.53518
-3.32514
-3.12867
-2.90492
-2.63512
-2.32522
-2.01928
-1.76653
-1.58734
-1.48139
-1.4181
-1.35722
-1.24781
-1.06824
-0.825098
-0.563828
-0.335506
-0.163289
-0.0499906
0.0311477
0.116676
0.253799
0.461356
0.73068
1.01491
1.26158
1.44571
1.56284
1.63896
1.71141
1.83
2.01644
2.26498
2.53033
2.76179
2.9363
3.04447
3.09191
-3.03955
-2.61434
-2.12367
-1.58041
-1.19188
-1.176
-1.55129
-2.34072
-3.39468
-4.59758
-5.6561
-6.46649
-6.90611
-7.02833
-6.8917
-6.74317
-6.80745
-7.0758
-7.49846
-7.84925
-8.04066
-7.96468
-7.6541
-7.14508
-6.62611
-6.26709
-6.04905
-5.92322
-5.70883
-5.35727
-4.84977
-4.3401
-3.99565
-3.84228
-3.90111
-4.07496
-4.29018
-4.36827
-4.27068
-3.99144
-3.69145
-3.5442
-3.58616
-3.84858
-4.24729
-4.71766
-5.0838
-5.28637
-5.25401
-5.02072
-4.62111
-4.20212
-3.89463
-3.68569
-3.53949
-3.32055
-2.99297
-2.54319
-2.08804
-1.75399
-1.55904
-1.51734
-1.55232
-1.60602
-1.54075
-1.32581
-0.955005
-0.548845
-0.236274
-0.0401439
0.0215355
0.0190541
0.00581231
0.113064
0.368584
0.776156
1.21494
1.55511
1.77056
1.83996
1.83155
1.79952
1.88155
2.11015
2.49592
2.91855
3.25251
3.48833
3.61429
3.68601
-3.76116
-2.99661
-2.26749
-1.13461
-0.181566
-0.0546819
-0.464711
-1.71968
-3.2904
-5.34255
-6.88612
-8.09826
-8.50669
-8.4543
-7.7452
-7.07669
-7.11403
-7.54513
-8.49691
-9.14333
-9.59866
-9.45708
-8.97715
-7.98184
-7.01886
-6.60714
-6.4691
-6.67874
-6.54936
-6.15669
-5.25029
-4.30842
-3.82372
-3.62267
-3.90951
-4.32378
-4.9539
-5.15528
-5.0322
-4.36863
-3.64684
-3.35936
-3.35575
-3.85061
-4.51515
-5.4591
-6.07545
-6.47894
-6.3879
-6.01417
-5.23591
-4.47219
-4.11695
-3.96061
-4.05975
-3.89725
-3.5314
-2.77343
-1.9869
-1.54551
-1.31439
-1.44713
-1.66379
-2.03022
-2.05325
-1.81177
-1.13964
-0.402823
0.0270275
0.273096
0.182008
0.0191069
-0.281824
-0.244326
0.0538007
0.773765
1.55414
2.02552
2.30312
2.22657
2.05571
1.72103
1.71973
1.97535
2.67167
3.43246
3.88264
4.19671
4.26043
4.41641
-4.98033
-3.32852
-2.99318
-0.429646
2.01897
1.84043
1.83918
-0.643406
-2.49234
-6.81933
-8.59287
-10.8868
-10.7702
-10.8252
-8.53951
-6.39296
-6.85278
-7.26391
-9.93434
-10.7118
-12.0154
-11.4358
-11.0414
-8.7711
-6.61677
-6.55207
-6.38751
-7.92145
-7.76804
-7.69484
-5.70079
-3.61731
-3.24223
-2.69936
-3.7333
-4.26065
-6.23389
-6.40837
-6.57085
-4.82848
-2.97561
-2.76453
-2.40634
-3.60711
-4.37942
-6.67106
-7.37235
-8.38238
-7.92764
-7.5889
-5.82853
-4.15285
-4.05163
-3.86642
-4.95553
-4.76552
-4.63325
-3.04362
-1.38762
-1.03313
-0.544591
-1.25487
-1.55842
-2.94774
-2.94548
-2.91673
-1.41636
0.18625
0.555984
1.07289
0.446944
0.218984
-1.05576
-0.975997
-0.867473
0.685284
2.33911
2.7758
3.34653
2.74983
2.51664
1.16326
1.18876
1.20668
2.75523
4.39425
4.70935
5.26624
4.77438
5.37892
-7.60634
-1.7645
-6.92743
0.440899
8.00289
3.48075
7.71679
-0.479031
1.87475
-11.9726
-9.54966
-17.1458
-12.7858
-16.5662
-9.13268
-1.95528
-6.66085
-3.72844
-14.0969
-11.5219
-17.1429
-13.1472
-15.8061
-9.39236
-3.20465
-6.6398
-3.85906
-11.5929
-8.87015
-11.998
-6.27897
-0.46501
-2.90121
0.495698
-4.28544
-2.11427
-10.1029
-7.67758
-10.8513
-5.44625
0.0609796
-2.38035
0.789219
-3.97936
-2.05461
-10.1719
-8.22343
-12.3938
-9.29908
-11.2095
-6.29797
-1.56504
-4.106
-1.93599
-7.69195
-5.54943
-7.83243
-3.40818
1.08706
-0.712563
1.95266
-1.64712
0.111671
-5.86792
-3.87468
-6.13962
-1.8392
2.55178
0.874094
3.51942
0.139863
1.92726
-3.77907
-1.74808
-3.8674
0.452221
4.87767
3.33398
6.07186
2.75051
4.59146
-1.3792
0.669472
-1.76526
2.70924
7.26321
5.18854
7.84661
3.71022
7.09422
-17.4543
15.6467
-28.9063
1.03253
31.3877
-7.49118
31.4959
-15.5066
29.5709
-40.5556
3.92041
-40.6227
-3.08005
-38.4563
-9.35792
19.5929
-17.4687
18.9593
-36.899
-0.530899
-36.1199
-5.27686
-33.637
-9.68938
14.0631
-15.6798
13.8091
-30.3234
-1.54882
-29.0421
-6.9954
14.566
-10.9614
15.4656
-14.8505
14.6607
-28.9698
-0.885744
-27.4869
-6.21285
14.5418
-10.0776
15.414
-13.9917
14.7289
-28.1689
-0.265119
-26.8688
-3.46481
-24.6553
-6.51188
11.4955
-10.9458
11.4062
-21.8038
0.0377862
-20.6916
-3.87652
12.6248
-6.82286
13.47
-9.75716
12.9235
-20.2703
1.32654
-18.8179
-2.3937
13.6549
-5.0341
14.6405
-7.60874
14.4253
-17.6451
3.45523
-16.1403
0.0658479
16.0109
-2.27414
17.5216
-4.68329
17.9142
-15.4702
6.60556
-14.6871
2.5482
19.6768
-1.14796
20.2104
-8.18393
13.5093
28778.5
28746.7
28714.7
28682.5
28650
28617.3
28584.5
28551.4
28518.2
28484.9
28451.4
28417.9
28384.2
28350.6
28316.9
0.371443
0.363779
0.350666
0.332734
0.31078
0.285665
0.258217
0.229173
0.199137
0.168569
0.13779
0.106999
0.0762996
0.0457171
0.0152271
0.625399
0.612252
0.589722
0.55897
0.52144
0.478666
0.432108
0.383034
0.332467
0.281167
0.22965
0.178226
0.127036
0.076097
0.0253429
0.88944
0.870124
0.837016
0.791992
0.737347
0.675457
0.60852
0.538397
0.466539
0.39399
0.321427
0.249225
0.177524
0.106295
0.0353928
1.16833
1.14172
1.09616
1.03458
0.960445
0.877246
0.78808
0.695464
0.601282
0.506816
0.412838
0.319722
0.227543
0.136169
0.0453274
1.46799
1.43227
1.37132
1.2897
1.19259
1.08497
0.971062
0.85408
0.736295
0.619141
0.503378
0.389276
0.276756
0.165508
0.0550761
1.79587
1.7481
1.6672
1.56032
1.43523
1.29897
1.15708
1.01347
0.870663
0.730062
0.592249
0.457242
0.324695
0.194031
0.0645443
2.16184
2.09723
1.9892
1.84924
1.6891
1.5186
1.34476
1.17201
1.0028
0.838181
0.678304
0.522743
0.370745
0.221376
0.0736127
2.57951
2.49012
2.34342
2.15859
1.95354
1.74167
1.53136
1.32697
1.13029
0.941531
0.760026
0.584671
0.414159
0.247113
0.0821412
3.06848
2.94077
2.73617
2.48854
2.2252
1.9635
1.71215
1.47424
1.24985
1.0376
0.835576
0.641741
0.454099
0.270769
0.0899776
3.65941
3.4682
3.17191
2.83423
2.49556
2.17536
1.87974
1.60811
1.35727
1.12342
0.902921
0.692602
0.489715
0.29188
0.0969738
4.41126
4.09967
3.64821
3.18007
2.74725
2.36281
2.02354
1.7213
1.44776
1.19588
0.960078
0.736017
0.52027
0.310056
0.103009
5.46962
4.87147
4.14164
3.48997
2.95017
2.50509
2.13041
1.80587
1.51663
1.25227
1.00549
0.771111
0.545288
0.325065
0.108013
7.2257
5.77503
4.55794
3.68817
3.05829
2.57699
2.18725
1.85522
1.56066
1.29108
1.03852
0.79764
0.564701
0.3369
0.111989
10.5753
6.44436
4.62674
3.64639
3.01783
2.55746
2.18649
1.86718
1.57972
1.31288
1.05984
0.816223
0.578972
0.345842
0.115031
-0.0718047
-0.217307
-0.368591
-0.529889
-0.706066
-0.903032
-1.12838
-1.39246
-1.71045
-2.10646
-2.62286
-3.34387
-4.46329
-6.50573
-11.1311
-0.0651538
-0.197076
-0.333907
-0.479156
-0.636705
-0.811011
-1.00733
-1.23203
-1.49279
-1.79851
-2.15708
-2.56387
-2.94894
-2.93572
-0.695476
-0.0573849
-0.173443
-0.29339
-0.419899
-0.555732
-0.703717
-0.866586
-1.04651
-1.24383
-1.45382
-1.65793
-1.7992
-1.711
-0.911814
1.93908
-0.048722
-0.147113
-0.248328
-0.354185
-0.466343
-0.586104
-0.713988
-0.848836
-0.985946
-1.11315
-1.20263
-1.19428
-0.96629
-0.313242
0.856462
-0.0394022
-0.118825
-0.200052
-0.284111
-0.371696
-0.462872
-0.556552
-0.649538
-0.73481
-0.79855
-0.815403
-0.742375
-0.516116
-0.0737673
0.550872
-0.0296554
-0.0892886
-0.14982
-0.211607
-0.27458
-0.33793
-0.399613
-0.455564
-0.498507
-0.516337
-0.490621
-0.39732
-0.215717
0.0390102
0.219332
-0.0196868
-0.0591335
-0.0987241
-0.138291
-0.17722
-0.214171
-0.246678
-0.270618
-0.279559
-0.264199
-0.212697
-0.113798
0.0340094
0.203438
0.317641
-0.00966802
-0.0288801
-0.047648
-0.065423
-0.0812452
-0.093515
-0.0997151
-0.0961023
-0.0774447
-0.0370346
0.0324013
0.135695
0.268768
0.406221
0.471711
0.000265154
0.00106547
0.002739
0.00608784
0.0122607
0.0229207
0.0404203
0.0679478
0.109573
0.170049
0.254056
0.364502
0.500514
0.658991
0.861702
0.0100122
0.0304073
0.0519658
0.0756402
0.102653
0.134609
0.17359
0.222196
0.283498
0.360834
0.457392
0.575571
0.716682
0.881058
1.06035
0.0195037
0.0589455
0.0997284
0.142879
0.189619
0.241428
0.30008
0.367626
0.446286
0.538293
0.645741
0.77073
0.916719
1.09278
1.32729
0.0286961
0.0865575
0.145854
0.207633
0.273072
0.343503
0.420407
0.505343
0.599808
0.705044
0.821927
0.951324
1.0959
1.26393
1.46531
0.0375651
0.113179
0.190263
0.269855
0.353069
0.441097
0.535169
0.636455
0.74586
0.863723
0.989443
1.1214
1.2588
1.41195
1.64309
0.0461004
0.138786
0.23294
0.329572
0.429736
0.534507
0.64494
0.761945
0.886054
1.01696
1.15265
1.28772
1.4108
1.50584
1.60274
0.0543009
0.163382
0.273905
0.386852
0.503219
0.624004
0.750166
0.882522
1.02154
1.1669
1.31632
1.46239
1.58231
1.59846
1.19498
0.0621711
0.186981
0.313199
0.441771
0.57365
0.709788
0.851113
0.998492
1.15266
1.31404
1.48233
1.65526
1.8259
1.98255
2.16673
0.0697185
0.209611
0.35087
0.494409
0.641145
0.791994
0.947882
1.10978
1.27878
1.45642
1.64517
1.84976
2.07924
2.34759
2.64246
0.0769523
0.231299
0.386969
0.544846
0.705805
0.870726
1.04051
1.21615
1.39895
1.59109
1.79705
2.02703
2.30564
2.69427
3.35978
0.0838818
0.252074
0.421551
0.59316
0.767739
0.946111
1.1291
1.31757
1.51265
1.71621
1.93227
2.17059
2.45571
2.84875
3.49652
0.0905165
0.271967
0.454665
0.639432
0.827064
1.01832
1.21391
1.41445
1.62051
1.83269
2.05209
2.28173
2.53087
2.82642
3.23024
0.0968643
0.291001
0.486359
0.683735
0.8839
1.08756
1.29531
1.50753
1.72414
1.94418
2.16484
2.37941
2.57387
2.72899
2.90566
0.102932
0.309198
0.516667
0.726126
0.938337
1.15399
1.37366
1.5976
1.82543
2.05529
2.28187
2.49114
2.64422
2.61668
1.91421
0.108724
0.32657
0.545609
0.766632
0.990412
1.21768
1.44908
1.68501
1.92534
2.16872
2.41099
2.64197
2.84005
2.97315
3.09362
0.114243
0.343124
0.573194
0.80525
1.0401
1.27854
1.52139
1.7694
2.02319
2.28296
2.548
2.81576
3.08106
3.33849
3.58875
0.11949
0.358864
0.599418
0.841958
1.08732
1.33639
1.59017
1.84984
2.11691
2.39357
2.68319
2.99136
3.32761
3.70892
4.17744
0.12447
0.373795
0.624284
0.876737
1.132
1.39102
1.65491
1.92517
2.20403
2.49523
2.80556
3.14756
3.54296
4.0189
4.54511
0.129186
0.387932
0.647808
0.909594
1.17412
1.44231
1.71529
1.99459
2.28262
2.58365
2.906
3.26678
3.70248
4.29411
5.24246
0.133646
0.401297
0.670029
0.940583
1.21373
1.49032
1.77132
2.058
2.35224
2.65733
2.97982
3.33411
3.75382
4.32172
5.25367
0.137862
0.413925
0.691009
0.969802
1.251
1.53531
1.82347
2.11621
2.41438
2.71898
3.03166
3.35613
3.70233
4.09667
4.58289
0.141846
0.425858
0.710828
0.997387
1.28615
1.57769
1.87248
2.17072
2.4721
2.77506
3.0754
3.3632
3.61748
3.80794
4.01026
0.145614
0.437142
0.729567
1.02348
1.31942
1.61788
1.91915
2.22312
2.52877
2.83301
3.12793
3.39368
3.57701
3.51113
2.54331
0.149178
0.447817
0.747303
1.04819
1.35099
1.65617
1.964
2.27441
2.58648
2.89749
3.20081
3.48157
3.70966
3.84079
3.93671
0.152551
0.457921
0.764095
1.07161
1.38097
1.69268
2.00714
2.32461
2.64497
2.96737
3.28943
3.60617
3.90971
4.19506
4.48137
0.155742
0.467482
0.779987
1.09377
1.40937
1.72733
2.04825
2.37286
2.70212
3.03754
3.38182
3.74011
4.12251
4.54879
5.06597
0.158762
0.476528
0.795017
1.11473
1.43618
1.75999
2.08688
2.41795
2.75504
3.10161
3.46455
3.85744
4.30495
4.83954
5.43378
0.161621
0.485088
0.809228
1.13451
1.46143
1.79056
2.12267
2.45893
2.80144
3.15438
3.52657
3.937
4.42703
5.08904
6.14917
0.164331
0.493197
0.822678
1.15319
1.48518
1.81913
2.15565
2.49564
2.84066
3.19386
3.56214
3.96143
4.42981
5.06224
6.1113
0.166904
0.500896
0.83544
1.1709
1.50763
1.84598
2.1863
2.52892
2.87426
3.22293
3.57629
3.93805
4.31878
4.74628
5.2599
0.169355
0.508231
0.847597
1.18776
1.52901
1.87154
2.21541
2.5604
2.90561
3.2488
3.58472
3.90166
4.17537
4.37069
4.57199
0.171698
0.515244
0.85923
1.20393
1.54955
1.89623
2.24383
2.59178
2.93844
3.27979
3.60643
3.89548
4.08645
3.99113
2.87524
0.173944
0.521968
0.8704
1.21949
1.56943
1.92033
2.27209
2.62414
2.975
3.32107
3.65435
3.95759
4.19642
4.32044
4.39705
0.176099
0.528429
0.881148
1.2345
1.5887
1.94392
2.30021
2.65742
3.01494
3.37128
3.72322
4.06462
4.38622
4.68284
4.98056
0.178171
0.534639
0.891487
1.24897
1.60733
1.96684
2.32778
2.69055
3.05577
3.42462
3.79951
4.18558
4.59347
5.04465
5.58973
0.18016
0.540604
0.901421
1.26287
1.62522
1.98883
2.35416
2.72206
3.09415
3.47381
3.86812
4.29155
4.77078
5.34144
5.97526
0.18207
0.546329
0.91095
1.27618
1.64231
2.00969
2.37884
2.75074
3.12735
3.51289
3.91662
4.35894
4.88473
5.59454
6.73421
0.183903
0.551823
0.920087
1.28893
1.6586
2.02938
2.40169
2.77623
3.15443
3.53942
3.93843
4.36854
4.87102
5.54934
6.68024
0.185662
0.557097
0.928856
1.30115
1.67417
2.04809
2.42307
2.79926
3.17686
3.55629
3.93877
4.32806
4.73532
5.19004
5.73231
0.187353
0.562165
0.937288
1.31291
1.68917
2.06614
2.44369
2.8214
3.19809
3.5711
3.9345
4.27529
4.56676
4.77013
4.97599
0.188976
0.567036
0.945409
1.32428
1.70376
2.08385
2.4643
2.84431
3.22194
3.59267
3.94604
4.25698
4.45945
4.34868
3.12718
0.190531
0.571708
0.953221
1.33526
1.71798
2.10139
2.48528
2.86895
3.25065
3.62634
3.98717
4.31418
4.56975
4.69874
4.7735
0.192014
0.576168
0.960698
1.34584
1.73178
2.11867
2.5065
2.89505
3.2836
3.67041
4.05188
4.42118
4.76806
5.08663
5.40462
0.193415
0.580387
0.967788
1.3559
1.74499
2.13536
2.52731
2.92124
3.31781
3.71826
4.12513
4.54394
4.98615
5.47508
6.06601
0.194723
0.584329
0.974419
1.36532
1.75739
2.15103
2.54682
2.94568
3.34942
3.76169
4.1902
4.65062
5.17193
5.79289
6.4832
0.195926
0.587956
0.98052
1.37399
1.76875
2.16529
2.56427
2.96683
3.37516
3.79393
4.23321
4.7152
5.28863
6.06275
7.30464
0.197013
0.591231
0.986029
1.3818
1.77895
2.17793
2.57932
2.98404
3.39375
3.81199
4.24669
4.71645
5.26611
6.00796
7.24277
0.197972
0.594124
0.990898
1.3887
1.78793
2.18896
2.59215
2.99786
3.40649
3.81869
4.23593
4.66242
5.11024
5.61104
6.20673
0.198793
0.596604
0.995086
1.39466
1.79572
2.19857
2.60332
3.00974
3.41683
3.82195
4.21888
4.59376
4.91769
5.14842
5.38303
0.199464
0.598639
0.998546
1.39965
1.80235
2.20692
2.6134
3.02122
3.4286
3.83095
4.21727
4.56069
4.78992
4.68328
3.37691
0.199971
0.600185
1.00121
1.40357
1.80772
2.21404
2.62263
3.0331
3.44393
3.85115
4.24557
4.60711
4.89548
5.05147
5.15381
0.200294
0.601187
1.00299
1.40629
1.81166
2.21964
2.63063
3.0448
3.46182
3.8803
4.29681
4.70453
5.09305
5.45709
5.82881
0.200414
0.601577
1.00375
1.40761
1.81386
2.22323
2.6365
3.05461
3.47877
3.91087
4.35425
4.81548
5.30774
5.85755
6.5265
0.200307
0.601287
1.00337
1.40733
1.81396
2.22418
2.6391
3.0603
3.49028
3.93366
4.39938
4.90503
5.48261
6.17543
6.95625
0.199951
0.600247
1.00173
1.40523
1.81162
2.22193
2.63742
3.05995
3.49257
3.94101
4.4169
4.94479
5.57758
6.43239
7.79261
0.199329
0.598402
0.998723
1.40116
1.80662
2.21614
2.63094
3.05268
3.48393
3.92936
4.3984
4.91189
5.51848
6.33858
7.69605
0.198426
0.595707
0.994281
1.39503
1.79887
2.20676
2.61972
3.03887
3.46553
3.90137
4.34915
4.81453
5.31123
5.87178
6.53059
0.197231
0.592133
0.988358
1.3868
1.78836
2.19392
2.60427
3.01994
3.44079
3.86516
4.28779
4.69559
5.05972
5.33694
5.62835
0.195737
0.587658
0.980926
1.37645
1.77513
2.17781
2.58519
2.99746
3.41369
3.8302
4.23684
4.60715
4.86865
4.7924
3.48108
0.193937
0.582265
0.971959
1.36395
1.75917
2.15852
2.56279
2.97231
3.38644
3.80215
4.21123
4.59446
4.91218
5.1057
5.25807
0.191828
0.575939
0.961427
1.34924
1.74039
2.13589
2.5368
2.94403
3.35814
3.77877
4.20365
4.62743
5.04202
5.44776
5.89496
0.189408
0.568674
0.949306
1.33227
1.71863
2.10957
2.50648
2.91104
3.32537
3.75246
4.19692
4.66694
5.17812
5.76115
6.4811
0.186682
0.560477
0.935591
1.31298
1.69374
2.07916
2.47093
2.87132
3.28381
3.71413
4.17252
4.678
5.26444
5.9796
6.8168
0.18366
0.551379
0.920321
1.29139
1.66565
2.04442
2.42944
2.82327
3.22993
3.65636
4.11551
4.63299
5.26146
6.11345
7.44974
0.180365
0.541446
0.903599
1.26763
1.63449
2.00537
2.3819
2.76637
3.16237
3.57591
4.01807
4.51105
5.10335
5.91115
7.2519
0.176833
0.530781
0.885597
1.24193
1.60057
1.96247
2.3289
2.70153
3.08268
3.47565
3.88541
4.3203
4.79565
5.33891
5.95155
0.17311
0.519529
0.866562
1.21468
1.56443
1.91648
2.27165
2.63083
2.99483
3.36376
3.7354
4.10158
4.44086
4.71862
5.02605
0.169252
0.507862
0.8468
1.18632
1.52672
1.86837
2.21165
2.55683
2.90362
3.25001
3.58927
3.90168
4.12884
4.07786
2.97801
0.165325
0.49598
0.826655
1.15738
1.48819
1.81918
2.1504
2.48177
2.81271
3.14125
3.46187
3.76111
4.01001
4.16559
4.30237
0.161399
0.484097
0.806497
1.1284
1.44959
1.76988
2.08909
2.40705
2.72352
3.03801
3.34938
3.65561
3.95604
4.26648
4.67796
0.157545
0.472433
0.786708
1.09993
1.41164
1.72137
2.0287
2.3334
2.63573
2.93697
3.24052
3.55426
3.89517
4.29729
4.81722
0.153835
0.461206
0.767665
1.07255
1.37511
1.67457
1.97018
2.26145
2.54875
2.83434
3.12462
3.43413
3.79187
4.24638
4.84512
0.150335
0.450623
0.749737
1.04679
1.34077
1.63049
1.9147
2.19231
2.46299
2.72849
2.99541
3.28059
3.62145
4.09539
4.85516
0.147102
0.440865
0.733254
1.0232
1.3094
1.59026
1.86385
2.12803
2.38086
2.6217
2.85358
3.08848
3.35865
3.74602
4.48898
0.14418
0.432068
0.718482
1.00223
1.28178
1.55511
1.81956
2.07165
2.30709
2.52115
2.70971
2.87196
3.01451
3.1498
3.22631
0.141586
0.424303
0.705577
0.984187
1.25849
1.52617
1.78389
2.02685
2.24821
2.43832
2.58415
2.66921
2.67545
2.59449
2.50848
0.139312
0.417547
0.694531
0.969154
1.23982
1.50415
1.75848
1.99709
2.21104
2.38626
2.50085
2.52129
2.39699
2.04275
1.22562
0.13731
0.411663
0.685136
0.956877
1.22557
1.48911
1.744
1.98448
2.20078
2.37634
2.48296
2.47398
2.27824
1.81253
1.07758
0.135497
0.406394
0.676949
0.946725
1.21492
1.48007
1.73956
1.98866
2.21884
2.4143
2.5454
2.55643
2.34701
1.76933
0.80412
0.13375
0.401367
0.669307
0.937677
1.20639
1.47499
1.74234
2.00602
2.26104
2.49698
2.69129
2.79206
2.67155
1.9953
-0.134477
0.131923
0.396119
0.661371
0.928398
1.19794
1.47077
1.74767
2.02941
2.3165
2.60862
2.90217
3.18143
3.38201
3.23066
1.50128
0.129853
0.39014
0.652205
0.917373
1.18721
1.46373
1.74966
2.04909
2.36853
2.71932
3.12308
3.62553
4.3368
5.56166
8.26157
8.09119
5.24756
4.00855
3.31498
2.83893
2.46382
2.14194
1.85106
1.57962
1.32106
1.07135
0.827814
0.588536
0.352061
0.117181
0.853677
2.76391
2.98916
2.83574
2.59504
2.33633
2.07695
1.82108
1.5694
1.32156
1.07698
0.83501
0.595038
0.356468
0.118731
-0.895759
1.45046
2.23272
2.41713
2.36366
2.20935
2.00954
1.78824
1.55653
1.31981
1.08079
0.840826
0.600569
0.3603
0.12009
0.11047
1.22311
1.89144
2.16373
2.20236
2.11399
1.9571
1.76264
1.54716
1.31968
1.08528
0.846851
0.606115
0.364093
0.121429
0.497491
1.30431
1.82521
2.07267
2.1293
2.06625
1.93077
1.75168
1.54614
1.32438
1.09256
0.854489
0.612559
0.368337
0.122905
0.898295
1.58411
1.94888
2.1142
2.13941
2.06885
1.93474
1.7591
1.55641
1.33607
1.1042
0.864817
0.620603
0.373425
0.124644
1.9536
2.0869
2.2111
2.25311
2.2161
2.11561
1.96759
1.78534
1.57896
1.3558
1.12109
0.878511
0.630717
0.379632
0.126736
2.58532
2.59609
2.53045
2.44698
2.33693
2.1954
2.02424
1.82836
1.6132
1.38358
1.14345
0.895848
0.643128
0.387103
0.129232
3.75597
3.15843
2.86225
2.65941
2.4797
2.2958
2.09807
1.88481
1.6575
1.4187
1.17102
0.916762
0.657848
0.395865
0.132143
4.12636
3.51157
3.1293
2.85589
2.62546
2.40582
2.18274
1.95104
1.70982
1.46003
1.20319
0.940929
0.674717
0.405845
0.135447
4.22288
3.70335
3.32082
3.02262
2.76377
2.51829
2.27344
2.02392
1.76815
1.50628
1.23916
0.967866
0.693449
0.416895
0.139101
4.25133
3.80008
3.45387
3.16211
2.89287
2.63035
2.36742
2.10118
1.83075
1.55621
1.27807
0.996995
0.713684
0.428819
0.14304
4.20381
3.82396
3.54917
3.28608
3.01736
2.74273
2.46374
2.18139
1.89626
1.6087
1.31906
1.0277
0.73502
0.441388
0.147192
3.89804
3.77497
3.63645
3.41405
3.14603
2.85818
2.56242
2.2636
1.9635
1.66267
1.36127
1.05937
0.757033
0.454361
0.151478
2.731
3.73682
3.78203
3.57383
3.28854
2.97915
2.66326
2.34675
2.0313
1.71709
1.40388
1.09137
0.779302
0.467494
0.155818
4.6586
4.36585
4.10367
3.78726
3.44789
3.10466
2.76457
2.42923
2.09828