/*--------------------------------*- C++ -*----------------------------------*\
| =========                 |                                                 |
| \\      /  F ield         | OpenFOAM: The Open Source CFD Toolbox           |
|  \\    /   O peration     | Version:  5.x                                   |
|   \\  /    A nd           | Web:      www.OpenFOAM.org                      |
|    \\/     M anipulation  |                                                 |
\*---------------------------------------------------------------------------*/
FoamFile
{
    version     2.0;
    format      ascii;
    class       volScalarField;
    location    "5";
    object      gradTx;
}
// * * * * * * * * * * * * * * * * * * * * * * * * * * * * * * * * * * * * * //

dimensions      [0 -1 0 1 0 0 0];

internalField   nonuniform List<scalar> 
6300
(
-52.7149
-52.6965
-52.6597
-52.6044
-52.5302
-52.4373
-52.3254
-52.1948
-52.0458
-51.8791
-51.6959
-51.4974
-51.2852
-51.0608
-50.8255
-52.7337
-52.7154
-52.6787
-52.6235
-52.5496
-52.4566
-52.3446
-52.2136
-52.0639
-51.8962
-51.7116
-51.5116
-51.2979
-51.0723
-50.8363
-52.7712
-52.7531
-52.7168
-52.6619
-52.5883
-52.4955
-52.3832
-52.2515
-52.1004
-51.9306
-51.7432
-51.5399
-51.3229
-51.0945
-50.8572
-52.8273
-52.8095
-52.7737
-52.7196
-52.6466
-52.5542
-52.4419
-52.3092
-52.1561
-51.9831
-51.7912
-51.5824
-51.3596
-51.1262
-50.8859
-52.9016
-52.8843
-52.8495
-52.7965
-52.7247
-52.6333
-52.5213
-52.3878
-52.2323
-52.0549
-51.8566
-51.6395
-51.4074
-51.1653
-50.919
-52.9937
-52.9772
-52.9437
-52.8927
-52.823
-52.7335
-52.6226
-52.4888
-52.3309
-52.1481
-51.9411
-51.7121
-51.4657
-51.2091
-50.9515
-53.1028
-53.0874
-53.056
-53.0079
-52.9416
-52.8555
-52.7472
-52.6144
-52.4547
-52.2661
-52.0482
-51.8025
-51.5346
-51.2544
-50.9761
-53.2278
-53.2139
-53.1855
-53.1417
-53.0806
-53
-52.8968
-52.7674
-52.6078
-52.4141
-52.1833
-51.9157
-51.6163
-51.2982
-50.9831
-53.3671
-53.3553
-53.3311
-53.2932
-53.2396
-53.1675
-53.073
-52.9511
-52.7956
-52.5994
-52.3559
-52.061
-51.7172
-51.3396
-50.96
-53.5187
-53.5096
-53.4907
-53.4607
-53.4176
-53.3579
-53.2772
-53.1689
-53.0244
-52.8326
-52.5803
-52.2554
-51.8523
-51.3834
-50.8927
-53.6799
-53.6741
-53.6619
-53.642
-53.6124
-53.5699
-53.5093
-53.4234
-53.3011
-53.1265
-52.8778
-52.5285
-52.0536
-51.4492
-50.7679
-53.8474
-53.8455
-53.8411
-53.8335
-53.8207
-53.8002
-53.7673
-53.7147
-53.6304
-53.4947
-53.2763
-52.9274
-52.3846
-51.5923
-50.5816
-54.0173
-54.0197
-54.0242
-54.0304
-54.0374
-54.0434
-54.0454
-54.0381
-54.0114
-53.9461
-53.8057
-53.5205
-52.9656
-51.9541
-50.36
-54.1853
-54.1922
-54.2061
-54.2271
-54.2554
-54.2909
-54.3333
-54.3814
-54.4312
-54.4729
-54.4801
-54.3838
-54.0037
-52.8993
-50.2511
-54.3469
-54.3582
-54.3814
-54.4171
-54.4666
-54.532
-54.616
-54.7231
-54.8596
-55.0344
-55.2584
-55.5312
-55.7669
-55.3893
-51.1769
-50.601
-50.3887
-50.1681
-49.9378
-49.6956
-49.4394
-49.1666
-48.8747
-48.5616
-48.2258
-47.8666
-47.484
-47.0789
-46.6527
-46.2075
-45.7456
-45.2697
-44.7825
-44.287
-43.7862
-43.2832
-42.7808
-42.2819
-41.7892
-41.305
-40.8311
-40.3693
-39.9205
-39.4854
-39.0642
-38.6568
-38.2626
-37.8807
-37.5102
-37.1497
-36.798
-36.4536
-36.1155
-35.7823
-35.453
-35.1267
-34.8024
-34.4796
-34.1578
-33.837
-33.5174
-33.1997
-32.885
-32.5748
-32.2706
-31.9743
-31.6874
-31.4116
-31.1484
-30.8989
-30.6641
-30.4446
-30.2409
-30.0531
-29.8813
-29.7254
-29.585
-29.4599
-29.35
-29.255
-29.1749
-29.1095
-29.0588
-29.0229
-29.0016
-28.9949
-29.0028
-29.0252
-29.0623
-29.1139
-29.18
-29.2606
-29.3554
-29.4642
-29.5866
-29.722
-29.87
-30.03
-30.2011
-30.3824
-30.5729
-30.771
-30.9752
-31.1837
-31.3943
-50.6122
-50.4011
-50.1826
-49.9551
-49.7164
-49.4639
-49.1945
-48.9056
-48.5946
-48.2599
-47.9006
-47.5169
-47.1096
-46.6806
-46.2319
-45.7662
-45.2862
-44.7948
-44.295
-43.7899
-43.2825
-42.776
-42.2733
-41.7773
-41.2902
-40.8142
-40.3507
-39.901
-39.4655
-39.0446
-38.6379
-38.2449
-37.8646
-37.4959
-37.1373
-36.7874
-36.4448
-36.1084
-35.7767
-35.4488
-35.1237
-34.8004
-34.4781
-34.1564
-33.8351
-33.5145
-33.1953
-32.8786
-32.566
-32.2593
-31.9604
-31.6712
-31.3934
-31.1285
-30.8776
-30.6418
-30.4217
-30.2177
-30.0299
-29.8583
-29.7026
-29.5626
-29.4378
-29.3281
-29.2333
-29.1533
-29.088
-29.0374
-29.0015
-28.9802
-28.9735
-28.9814
-29.0039
-29.0409
-29.0926
-29.1589
-29.2397
-29.335
-29.4443
-29.5673
-29.7035
-29.8525
-30.0135
-30.1859
-30.3689
-30.5613
-30.7619
-30.9688
-31.1802
-31.394
-50.6335
-50.4248
-50.2106
-49.989
-49.7576
-49.5129
-49.2512
-48.9687
-48.6623
-48.3299
-47.9704
-47.584
-47.1722
-46.7371
-46.2813
-45.8078
-45.3195
-44.8196
-44.3111
-43.7971
-43.2809
-42.766
-42.2556
-41.7527
-41.2599
-40.7794
-40.3128
-39.8611
-39.425
-39.0046
-38.5996
-38.2091
-37.8321
-37.4671
-37.1124
-36.7663
-36.4274
-36.0943
-35.7658
-35.4408
-35.1181
-34.7968
-34.4758
-34.1544
-33.8323
-33.5096
-33.187
-32.8661
-32.5485
-32.2366
-31.9325
-31.6385
-31.3565
-31.088
-30.8344
-30.5966
-30.3753
-30.1708
-29.9831
-29.8121
-29.6571
-29.5179
-29.3938
-29.2846
-29.19
-29.1101
-29.0449
-28.9944
-28.9586
-28.9374
-28.9308
-28.9387
-28.9611
-28.9981
-29.0498
-29.1164
-29.1978
-29.2938
-29.4043
-29.5286
-29.6664
-29.8171
-29.9802
-30.1552
-30.3414
-30.5378
-30.743
-30.9554
-31.1729
-31.3931
-50.6622
-50.457
-50.2494
-50.0377
-49.8185
-49.5871
-49.3382
-49.0667
-48.768
-48.4393
-48.0792
-47.6883
-47.2688
-46.8237
-46.3565
-45.8709
-45.3701
-44.8572
-44.3353
-43.8077
-43.278
-42.7499
-42.2274
-41.7138
-41.2122
-40.7249
-40.2535
-39.7991
-39.3621
-38.9427
-38.5404
-38.1542
-37.7825
-37.4236
-37.0751
-36.7351
-36.4018
-36.0738
-35.75
-35.4293
-35.1106
-34.7927
-34.474
-34.1535
-33.8303
-33.5043
-33.1765
-32.8485
-32.5229
-32.2024
-31.8901
-31.5884
-31.2998
-31.0259
-30.7682
-30.5275
-30.3045
-30.0994
-29.9122
-29.7423
-29.5888
-29.451
-29.3281
-29.2195
-29.1253
-29.0454
-28.9802
-28.9298
-28.8943
-28.8734
-28.8669
-28.8748
-28.8969
-28.9336
-28.9852
-29.0521
-29.1343
-29.2317
-29.3438
-29.4702
-29.6102
-29.7634
-29.9294
-30.108
-30.2987
-30.501
-30.7135
-30.9344
-31.1614
-31.3917
-50.6941
-50.4929
-50.2949
-50.0979
-49.8974
-49.6868
-49.4583
-49.2041
-48.9176
-48.5942
-48.2327
-47.8343
-47.4026
-46.9424
-46.4589
-45.9564
-45.4385
-44.9082
-44.3682
-43.8218
-43.273
-42.7263
-42.1865
-41.658
-41.1443
-40.6478
-40.1702
-39.7122
-39.2742
-38.8564
-38.4582
-38.0784
-37.7149
-37.365
-37.0257
-36.6943
-36.3686
-36.0474
-35.7297
-35.415
-35.1021
-34.7895
-34.475
-34.1564
-33.8322
-33.5018
-33.1661
-32.8275
-32.4896
-32.1564
-31.8319
-31.5195
-31.2217
-30.9405
-30.6771
-30.4326
-30.2076
-30.0022
-29.8161
-29.6484
-29.4977
-29.3624
-29.2412
-29.1336
-29.0395
-28.9594
-28.8939
-28.8436
-28.8085
-28.7881
-28.7821
-28.7898
-28.8114
-28.8474
-28.8984
-28.9653
-29.0485
-29.1478
-29.2625
-29.3918
-29.5347
-29.6908
-29.86
-30.0427
-30.2391
-30.449
-30.6713
-30.9041
-31.1446
-31.3894
-50.7221
-50.5248
-50.3393
-50.1635
-49.9912
-49.8128
-49.6161
-49.3887
-49.1205
-48.8047
-48.4397
-48.0286
-47.5778
-47.0953
-46.5889
-46.0644
-45.5252
-44.9734
-44.4107
-43.8398
-43.2652
-42.693
-42.1297
-41.5811
-41.0517
-40.544
-40.0588
-39.5966
-39.1576
-38.7421
-38.3498
-37.9794
-37.628
-37.2914
-36.9652
-36.6453
-36.3292
-36.0158
-35.7053
-35.398
-35.0933
-34.7891
-34.4818
-34.1675
-33.843
-33.5067
-33.1597
-32.8055
-32.4495
-32.0979
-31.7563
-31.4292
-31.1196
-30.8291
-30.5588
-30.3095
-30.0821
-29.8768
-29.6933
-29.5299
-29.384
-29.253
-29.1347
-29.0279
-28.9332
-28.8518
-28.7854
-28.7351
-28.701
-28.682
-28.6769
-28.6846
-28.7049
-28.7389
-28.7882
-28.8546
-28.939
-29.0412
-29.1599
-29.2933
-29.4398
-29.5988
-29.7708
-29.9573
-30.1597
-30.3787
-30.6137
-30.8623
-31.1212
-31.3858
-50.7356
-50.5402
-50.3703
-50.2246
-50.0946
-49.9656
-49.8183
-49.6328
-49.3923
-49.0865
-48.7138
-48.2805
-47.7989
-47.2832
-46.7456
-46.1939
-45.6306
-45.0548
-44.4653
-43.8634
-43.2545
-42.6473
-42.0519
-41.4771
-40.9284
-40.4078
-39.9146
-39.4479
-39.0074
-38.5945
-38.21
-37.8531
-37.5197
-37.2031
-36.8957
-36.5911
-36.2859
-35.9801
-35.6763
-35.3774
-35.0839
-34.793
-34.4987
-34.1934
-33.8706
-33.5269
-33.1635
-32.7859
-32.403
-32.0246
-31.6595
-31.3136
-30.9897
-30.6885
-30.4099
-30.1547
-29.9243
-29.7199
-29.5413
-29.3857
-29.2487
-29.1252
-29.011
-28.9046
-28.8072
-28.7223
-28.6534
-28.6031
-28.5712
-28.5555
-28.5528
-28.5606
-28.5784
-28.608
-28.6531
-28.7176
-28.8035
-28.9106
-29.0358
-29.1755
-29.3265
-29.4876
-29.6604
-29.8485
-30.0559
-30.285
-30.5358
-30.8055
-31.0891
-31.3806
-50.7186
-50.5192
-50.3672
-50.2634
-50.197
-50.1451
-50.0762
-49.9566
-49.7584
-49.4651
-49.0753
-48.6025
-48.0698
-47.5029
-46.9229
-46.3405
-45.7544
-45.1564
-44.538
-43.8974
-43.2416
-42.585
-41.9448
-41.3356
-40.7649
-40.2324
-39.7328
-39.2615
-38.8179
-38.406
-38.0308
-37.6932
-37.3875
-37.1018
-36.8223
-36.5379
-36.2435
-35.9417
-35.6405
-35.3489
-35.0706
-34.8019
-34.5313
-34.2444
-33.9282
-33.5755
-33.1876
-32.7739
-32.3499
-31.9322
-31.5349
-31.1661
-30.827
-30.515
-30.2272
-29.964
-29.7289
-29.5258
-29.3557
-29.2146
-29.0938
-28.9835
-28.8758
-28.7679
-28.6632
-28.5692
-28.4944
-28.444
-28.4177
-28.41
-28.4133
-28.422
-28.4344
-28.4543
-28.4898
-28.5492
-28.6373
-28.7532
-28.8905
-29.0411
-29.1981
-29.3591
-29.5276
-29.7117
-29.9203
-30.1596
-30.4303
-30.728
-31.0452
-31.3732
-50.6476
-50.4304
-50.295
-50.2486
-50.279
-50.3497
-50.4073
-50.3942
-50.262
-49.9829
-49.557
-49.0113
-48.3902
-47.7418
-47.1041
-46.4926
-45.896
-45.2877
-44.6432
-43.9536
-43.2302
-42.4995
-41.7935
-41.1389
-40.5468
-40.0098
-39.5106
-39.0353
-38.5829
-38.165
-37.7976
-37.4878
-37.2265
-36.9915
-36.7562
-36.4991
-36.2119
-35.9024
-35.5912
-35.301
-35.0439
-34.8133
-34.5875
-34.3377
-34.0384
-33.6748
-33.2485
-32.7769
-32.2875
-31.8103
-31.3693
-30.9756
-30.6252
-30.3063
-30.0089
-29.7328
-29.487
-29.2837
-29.1283
-29.0138
-28.9236
-28.8376
-28.7405
-28.6266
-28.5033
-28.388
-28.2998
-28.2501
-28.2371
-28.248
-28.2659
-28.2776
-28.279
-28.278
-28.2917
-28.3391
-28.4309
-28.5644
-28.7258
-28.8971
-29.0635
-29.2194
-29.3721
-29.539
-29.7401
-29.9887
-30.2857
-30.6221
-30.9855
-31.3632
-50.4877
-50.224
-50.095
-50.1236
-50.3031
-50.5734
-50.8406
-51.0038
-50.9777
-50.7124
-50.2114
-49.5292
-48.7501
-47.9656
-47.2481
-46.6236
-46.0545
-45.4716
-44.8136
-44.0587
-43.2296
-42.3785
-41.5686
-40.8524
-40.2496
-39.733
-39.2542
-38.7765
-38.2982
-37.8518
-37.4814
-37.2125
-37.0279
-36.8819
-36.7213
-36.5039
-36.2125
-35.8655
-35.5116
-35.2054
-34.9788
-34.8181
-34.6781
-34.5024
-34.241
-33.8643
-33.3747
-32.8054
-32.2074
-31.6361
-31.1354
-30.7226
-30.3781
-30.0663
-29.7598
-29.4575
-29.1839
-28.9724
-28.8416
-28.7781
-28.7469
-28.7077
-28.6289
-28.4985
-28.3318
-28.1676
-28.0493
-28.0032
-28.022
-28.0755
-28.1271
-28.1478
-28.1269
-28.0799
-28.045
-28.0646
-28.164
-28.3351
-28.5466
-28.7599
-28.9435
-29.0841
-29.1958
-29.3167
-29.4911
-29.7478
-30.0837
-30.4772
-30.9049
-31.3501
-50.1882
-49.8241
-49.6682
-49.7815
-50.1967
-50.8015
-51.4239
-51.8861
-52.0379
-51.7819
-51.127
-50.1867
-49.1183
-48.0934
-47.2582
-46.6749
-46.2335
-45.7637
-45.1239
-44.2709
-43.261
-42.1987
-41.2089
-40.4026
-39.8287
-39.4019
-38.9962
-38.519
-37.9677
-37.4291
-37.0195
-36.816
-36.7736
-36.7932
-36.7685
-36.6155
-36.2932
-35.8387
-35.3631
-34.9955
-34.8189
-34.793
-34.8199
-34.7903
-34.6096
-34.2165
-33.6155
-32.8749
-32.089
-31.36
-30.7748
-30.3709
-30.0839
-29.8185
-29.5046
-29.1405
-28.7914
-28.5447
-28.4579
-28.4955
-28.5814
-28.6345
-28.5915
-28.4222
-28.1566
-27.8808
-27.6945
-27.6626
-27.7565
-27.9054
-28.0326
-28.0776
-28.0118
-27.8644
-27.7195
-27.6748
-27.7938
-28.0474
-28.3643
-28.6652
-28.8852
-28.9902
-29.0061
-29.017
-29.1234
-29.3925
-29.7985
-30.2829
-30.7988
-31.3318
-49.6699
-49.125
-48.8542
-49.0054
-49.8178
-51.0047
-52.2383
-53.2158
-53.6859
-53.4261
-52.4541
-51.0292
-49.4244
-47.9483
-46.9059
-46.5225
-46.4537
-46.3008
-45.7418
-44.7093
-43.3681
-41.9147
-40.5851
-39.6188
-39.196
-39.0405
-38.8415
-38.3683
-37.619
-36.8209
-36.2608
-36.1876
-36.4305
-36.7684
-37.0005
-36.9708
-36.5645
-35.8421
-35.0594
-34.5104
-34.4422
-34.6917
-35.0433
-35.2957
-35.2839
-34.8682
-34.0572
-33.0096
-31.8887
-30.8766
-30.1531
-29.8508
-29.7584
-29.6401
-29.3216
-28.8016
-28.2511
-27.8865
-27.8946
-28.1433
-28.4629
-28.6996
-28.7353
-28.4846
-27.9956
-27.4647
-27.1169
-27.1407
-27.4115
-27.7661
-28.0561
-28.1667
-28.0141
-27.6446
-27.2493
-27.049
-27.2293
-27.6684
-28.2048
-28.6867
-28.9921
-29.0242
-28.8231
-28.5795
-28.521
-28.8399
-29.4
-30.0431
-30.6677
-31.2931
-48.7673
-48.0317
-47.4337
-47.2784
-48.9008
-51.1413
-53.4219
-55.277
-56.3854
-56.0968
-54.4339
-52.1314
-49.5456
-47.1796
-45.605
-45.9175
-46.7956
-47.4231
-47.0418
-45.593
-43.6375
-41.4528
-39.4386
-38.0527
-38.179
-38.7421
-39.0821
-38.6153
-37.3412
-35.8702
-34.8015
-35.1041
-35.9507
-36.8961
-37.6098
-37.8687
-37.291
-35.9326
-34.4191
-33.333
-33.6078
-34.4437
-35.4094
-36.1816
-36.5398
-36.0889
-34.8393
-33.2499
-31.5313
-29.9776
-28.9244
-29.0282
-29.47
-29.7498
-29.4286
-28.5065
-27.4428
-26.6913
-26.9844
-27.6885
-28.4633
-29.0538
-29.2912
-28.8896
-27.8944
-26.7844
-26.0037
-26.2626
-26.9454
-27.7194
-28.3374
-28.6342
-28.328
-27.4616
-26.4978
-25.8744
-26.2917
-27.1487
-28.1231
-28.9621
-29.4918
-29.3934
-28.7009
-27.8747
-27.3749
-27.9394
-28.8814
-29.8296
-30.5351
-31.1502
-46.8773
-46.7404
-45.3756
-42.9909
-47.0937
-51.2204
-55.2189
-58.4137
-61.097
-60.7468
-57.335
-53.6419
-49.3505
-45.2715
-41.5871
-44.4984
-47.4988
-49.9987
-49.8793
-47.2066
-44.237
-40.7459
-37.3874
-34.3092
-36.5332
-38.7654
-40.4848
-40.0249
-37.3471
-34.3402
-31.3678
-33.2373
-35.3289
-37.3577
-38.8741
-39.9715
-39.1417
-36.2465
-33.1635
-30.1961
-31.9654
-34.0086
-36.0544
-37.6634
-38.9606
-38.4597
-36.1107
-33.676
-30.9365
-28.3577
-26.0298
-27.7185
-29.4147
-30.7248
-30.4006
-28.4149
-26.1848
-23.9917
-25.482
-27.1316
-28.729
-29.9162
-30.7668
-30.1491
-27.9584
-25.6297
-23.3933
-24.7739
-26.3475
-27.8969
-29.0808
-29.9699
-29.448
-27.4187
-25.2558
-23.2011
-24.7207
-26.4595
-28.2359
-29.6826
-30.8959
-30.6176
-28.771
-26.6997
-24.696
-26.4949
-28.3536
-29.9651
-30.5325
-30.4687
-40.766
-47.217
-44.7873
-29.362
-45.253
-51.4846
-58.1737
-62.2874
-70.1776
-69.8061
-60.6418
-56.0148
-48.85
-42.7958
-28.0719
-42.9513
-48.9234
-56.3464
-56.3939
-49.2482
-45.5878
-39.8487
-34.9328
-22.9309
-34.8759
-39.5274
-45.0259
-44.6286
-37.8273
-32.7608
-20.962
-31.0508
-34.7979
-38.5572
-40.7418
-44.8497
-43.967
-36.8306
-31.7415
-20.2383
-29.9287
-33.5698
-37.3283
-39.5942
-43.9708
-43.4915
-37.5057
-34.5407
-30.1101
-26.3763
-17.3511
-26.3978
-29.9151
-34.053
-33.7647
-28.675
-24.8733
-15.9879
-23.7496
-26.6498
-29.5848
-31.263
-34.3561
-33.6732
-28.2205
-24.3419
-15.574
-23.0067
-25.7842
-28.6005
-30.248
-33.3369
-32.7384
-27.5676
-23.8574
-15.3803
-22.8336
-25.7156
-28.8232
-30.7386
-34.4475
-34.0998
-29.1642
-25.427
-16.5407
-24.9642
-28.1813
-31.6036
-31.438
-26.946
-31.6258
-31.8749
-32.1169
-32.3482
-32.5661
-32.768
-32.9522
-33.1173
-33.2625
-33.3872
-33.4911
-33.5742
-33.6364
-33.6778
-33.6985
-31.629
-31.8818
-32.1271
-32.3614
-32.5816
-32.7854
-32.9709
-33.1369
-33.2826
-33.4076
-33.5116
-33.5947
-33.6568
-33.6982
-33.7189
-31.6353
-31.8957
-32.1479
-32.3881
-32.6132
-32.8206
-33.0087
-33.1764
-33.3231
-33.4485
-33.5527
-33.6357
-33.6977
-33.7389
-33.7595
-31.6452
-31.9175
-32.1804
-32.4297
-32.6619
-32.8747
-33.0665
-33.2365
-33.3845
-33.5104
-33.6145
-33.6973
-33.759
-33.7999
-33.8203
-31.659
-31.9481
-32.2261
-32.4878
-32.7297
-32.9494
-33.1458
-33.3184
-33.4675
-33.5936
-33.6974
-33.7796
-33.8406
-33.881
-33.9012
-31.6776
-31.9896
-32.2875
-32.5654
-32.8192
-33.0471
-33.2483
-33.4233
-33.5731
-33.6988
-33.8016
-33.8826
-33.9425
-33.9821
-34.0018
-31.7023
-32.0448
-32.3686
-32.6665
-32.9344
-33.1709
-33.3766
-33.5532
-33.7024
-33.8266
-33.9273
-34.0062
-34.0644
-34.1027
-34.1218
-31.7352
-32.1183
-32.4753
-32.7973
-33.0806
-33.3252
-33.5338
-33.7098
-33.8565
-33.9772
-34.0745
-34.1501
-34.2057
-34.2423
-34.2604
-31.7802
-32.2174
-32.6166
-32.9666
-33.2651
-33.5153
-33.7232
-33.8951
-34.0363
-34.151
-34.2427
-34.3138
-34.3658
-34.3999
-34.4168
-31.8432
-32.3544
-32.8068
-33.1872
-33.4975
-33.7474
-33.9485
-34.1108
-34.242
-34.3475
-34.4313
-34.496
-34.5433
-34.5743
-34.5896
-31.9335
-32.5498
-33.0689
-33.4776
-33.7901
-34.0283
-34.2125
-34.3574
-34.4729
-34.5653
-34.6386
-34.6952
-34.7367
-34.764
-34.7775
-32.0634
-32.8419
-33.4408
-33.8636
-34.1564
-34.3632
-34.5158
-34.6333
-34.7267
-34.8019
-34.8621
-34.9092
-34.944
-34.967
-34.9785
-32.2507
-33.3128
-33.9885
-34.3786
-34.6073
-34.752
-34.854
-34.9332
-34.9983
-35.053
-35.0985
-35.135
-35.1627
-35.1812
-35.1906
-32.5626
-34.1698
-34.8223
-35.0551
-35.1413
-35.183
-35.215
-35.2471
-35.2803
-35.313
-35.3433
-35.3694
-35.3901
-35.4043
-35.4116
-33.5579
-35.9806
-36.0753
-35.8782
-35.7185
-35.6231
-35.5758
-35.5598
-35.5625
-35.5751
-35.5919
-35.6089
-35.6234
-35.634
-35.6395
-54.485
-54.5001
-54.531
-54.5789
-54.6461
-54.7361
-54.8544
-55.0098
-55.2172
-55.5044
-55.9274
-56.6179
-57.9461
-61.1872
-71.6061
-54.6003
-54.6185
-54.6555
-54.713
-54.7939
-54.9024
-55.0456
-55.2343
-55.4871
-55.8375
-56.3504
-57.1637
-58.5999
-61.4728
-67.873
-54.7035
-54.724
-54.766
-54.8312
-54.9227
-55.045
-55.2053
-55.4143
-55.6893
-56.058
-56.5652
-57.2778
-58.256
-59.3093
-58.5117
-54.7927
-54.8151
-54.8608
-54.9316
-55.0304
-55.1615
-55.3312
-55.5486
-55.8265
-56.1826
-56.6382
-57.2079
-57.8604
-58.4311
-58.6606
-54.8667
-54.8904
-54.9386
-55.0129
-55.116
-55.2514
-55.4242
-55.6409
-55.9096
-56.2385
-56.6328
-57.0808
-57.5218
-57.7903
-57.4946
-54.9246
-54.949
-54.9986
-55.0747
-55.1794
-55.3155
-55.4868
-55.6972
-55.9507
-56.2497
-56.5914
-56.9585
-57.3032
-57.542
-57.5884
-54.9658
-54.9905
-55.0405
-55.1169
-55.2212
-55.3556
-55.5222
-55.7233
-55.9602
-56.232
-56.5336
-56.8517
-57.1582
-57.4278
-57.7099
-54.9902
-55.0149
-55.0645
-55.1401
-55.2426
-55.3734
-55.5338
-55.7246
-55.9454
-56.194
-56.466
-56.7529
-57.0388
-57.3056
-57.465
-54.9979
-55.0222
-55.071
-55.1449
-55.2446
-55.371
-55.5244
-55.7048
-55.911
-56.1404
-56.3897
-56.6548
-56.9328
-57.2587
-57.8839
-54.9891
-55.0128
-55.0604
-55.1321
-55.2286
-55.3499
-55.4963
-55.6669
-55.8603
-56.0736
-56.304
-56.5475
-56.7934
-57.0046
-56.8975
-54.9642
-54.9872
-55.0333
-55.1026
-55.1955
-55.3118
-55.4514
-55.6132
-55.7954
-55.9955
-56.2108
-56.4387
-56.6782
-56.9723
-57.667
-54.9238
-54.9459
-54.9904
-55.0572
-55.1464
-55.2579
-55.3911
-55.5451
-55.718
-55.9074
-56.1103
-56.3217
-56.5251
-56.6625
-56.352
-54.8682
-54.8896
-54.9324
-54.9966
-55.0823
-55.1891
-55.3165
-55.4637
-55.629
-55.8104
-56.0055
-56.2104
-56.4177
-56.6644
-57.379
-54.7981
-54.8187
-54.8598
-54.9216
-55.0037
-55.1061
-55.2283
-55.3695
-55.5287
-55.7044
-55.8956
-56.0973
-56.2829
-56.3422
-55.7049
-54.7141
-54.7339
-54.7734
-54.8326
-54.9115
-55.0097
-55.127
-55.2628
-55.4165
-55.5883
-55.7799
-55.9952
-56.2359
-56.5045
-56.7766
-54.6167
-54.6357
-54.6736
-54.7305
-54.8061
-54.9004
-55.0129
-55.1434
-55.2917
-55.4588
-55.6493
-55.8756
-56.1695
-56.665
-58.0328
-54.5065
-54.5247
-54.5611
-54.6156
-54.6881
-54.7785
-54.8864
-55.0115
-55.1536
-55.3135
-55.4956
-55.7089
-55.9632
-56.2205
-55.8744
-54.384
-54.4014
-54.4363
-54.4886
-54.5581
-54.6447
-54.7481
-54.8676
-55.0028
-55.1535
-55.3215
-55.5139
-55.7547
-56.1956
-57.8312
-54.2496
-54.2663
-54.2998
-54.3499
-54.4166
-54.4996
-54.5986
-54.7128
-54.8411
-54.9818
-55.1323
-55.2851
-55.4071
-55.342
-54.0684
-54.104
-54.12
-54.1521
-54.2001
-54.264
-54.3436
-54.4385
-54.548
-54.6706
-54.8038
-54.9429
-55.0777
-55.1895
-55.3283
-56.2679
-53.9476
-53.9629
-53.9936
-54.0396
-54.1008
-54.1772
-54.2685
-54.3739
-54.4926
-54.6221
-54.7581
-54.8861
-54.9532
-54.7592
-53.3253
-53.7808
-53.7954
-53.8248
-53.8688
-53.9275
-54.0008
-54.0885
-54.1906
-54.3067
-54.4365
-54.5802
-54.7368
-54.8982
-55.0518
-55.1731
-53.6041
-53.6181
-53.6461
-53.6882
-53.7443
-53.8145
-53.8988
-53.9975
-54.1112
-54.2418
-54.3949
-54.5842
-54.8486
-55.3675
-57.101
-53.418
-53.4314
-53.4581
-53.4981
-53.5516
-53.6185
-53.6991
-53.7938
-53.9036
-54.0318
-54.1858
-54.3793
-54.6223
-54.8405
-54.1511
-53.223
-53.2356
-53.261
-53.2991
-53.3499
-53.4134
-53.4897
-53.5793
-53.6832
-53.8044
-53.9509
-54.1399
-54.413
-54.9445
-56.7961
-53.0194
-53.0314
-53.0555
-53.0915
-53.1396
-53.1995
-53.2712
-53.3548
-53.4505
-53.5599
-53.6877
-53.8423
-54.0243
-54.1323
-53.1048
-52.8077
-52.8191
-52.8419
-52.876
-52.9213
-52.9776
-53.0446
-53.1217
-53.2081
-53.3032
-53.4073
-53.5254
-53.6869
-54.1093
-56.3146
-52.5885
-52.5992
-52.6208
-52.6529
-52.6956
-52.7485
-52.811
-52.882
-52.9596
-53.0405
-53.1184
-53.1785
-53.1682
-52.849
-50.7007
-52.362
-52.3722
-52.3925
-52.4229
-52.4632
-52.513
-52.5715
-52.6376
-52.7087
-52.7802
-52.8433
-52.8804
-52.8639
-52.8595
-53.9428
-52.1286
-52.1383
-52.1575
-52.1863
-52.2244
-52.2715
-52.3269
-52.3896
-52.4573
-52.5261
-52.5874
-52.6196
-52.5511
-52.1152
-50.0079
-51.8889
-51.898
-51.9162
-51.9435
-51.9796
-52.0244
-52.0773
-52.1379
-52.2051
-52.2774
-52.3532
-52.4287
-52.4933
-52.5321
-52.5322
-51.643
-51.6517
-51.6689
-51.6947
-51.729
-51.7717
-51.8226
-51.8816
-51.9491
-52.0268
-52.1202
-52.2454
-52.4532
-52.9766
-55.0533
-51.3914
-51.3996
-51.4159
-51.4404
-51.4729
-51.5135
-51.5621
-51.6192
-51.6859
-51.7655
-51.8664
-52.0047
-52.1939
-52.3429
-51.3537
-51.1343
-51.142
-51.1575
-51.1807
-51.2115
-51.2499
-51.2959
-51.35
-51.4135
-51.4897
-51.5879
-51.7285
-51.9625
-52.5002
-54.6239
-50.872
-50.8794
-50.894
-50.9159
-50.945
-50.9811
-51.0242
-51.0743
-51.132
-51.1991
-51.281
-51.3874
-51.52
-51.5567
-50.2314
-50.6049
-50.6118
-50.6257
-50.6464
-50.6738
-50.7076
-50.7476
-50.7932
-50.8437
-50.8985
-50.958
-51.0282
-51.144
-51.5595
-54.0504
-50.3331
-50.3397
-50.3528
-50.3724
-50.3983
-50.4301
-50.4672
-50.5087
-50.5524
-50.5948
-50.6288
-50.637
-50.56
-50.1216
-47.5604
-50.0569
-50.0632
-50.0757
-50.0943
-50.1188
-50.1489
-50.1839
-50.2224
-50.2619
-50.2972
-50.3184
-50.3051
-50.2267
-50.1583
-51.3255
-49.7766
-49.7826
-49.7945
-49.8122
-49.8357
-49.8645
-49.8981
-49.9354
-49.9741
-50.0098
-50.0328
-50.0183
-49.8864
-49.3373
-46.9004
-49.4923
-49.498
-49.5094
-49.5264
-49.549
-49.5769
-49.6098
-49.6472
-49.6882
-49.7313
-49.7743
-49.8129
-49.8358
-49.8278
-49.7792
-49.2042
-49.2096
-49.2206
-49.237
-49.2588
-49.286
-49.3185
-49.3565
-49.4007
-49.4531
-49.5198
-49.6183
-49.8067
-50.3467
-52.6223
-48.9124
-48.9176
-48.9281
-48.9439
-48.965
-48.9914
-49.0233
-49.0615
-49.1074
-49.1652
-49.2439
-49.3612
-49.5335
-49.6606
-48.5254
-48.617
-48.6221
-48.6322
-48.6473
-48.6676
-48.693
-48.7239
-48.7609
-48.8058
-48.8629
-48.942
-49.0658
-49.2916
-49.8514
-52.1568
-48.3183
-48.3232
-48.3329
-48.3474
-48.3667
-48.391
-48.4202
-48.4548
-48.4957
-48.5454
-48.6098
-48.6995
-48.8176
-48.8304
-47.3484
-48.0164
-48.021
-48.0303
-48.0442
-48.0626
-48.0856
-48.1129
-48.1443
-48.1794
-48.2179
-48.2605
-48.3136
-48.4166
-48.8477
-51.5483
-47.7113
-47.7158
-47.7246
-47.7379
-47.7555
-47.7772
-47.8027
-47.8311
-47.8606
-47.8877
-47.9047
-47.8928
-47.7879
-47.2891
-44.4732
-47.4033
-47.4076
-47.416
-47.4288
-47.4456
-47.4663
-47.4905
-47.517
-47.5434
-47.5645
-47.5696
-47.5364
-47.4326
-47.34
-48.5905
-47.0924
-47.0965
-47.1046
-47.1168
-47.133
-47.1531
-47.1767
-47.2029
-47.2297
-47.2527
-47.2616
-47.229
-47.0696
-46.4583
-43.7991
-46.7787
-46.7826
-46.7904
-46.8022
-46.8179
-46.8376
-46.8611
-46.8883
-46.9186
-46.9509
-46.9828
-47.0095
-47.0203
-46.999
-46.9362
-46.4624
-46.4661
-46.4736
-46.4849
-46.5001
-46.5194
-46.543
-46.5715
-46.6061
-46.6493
-46.708
-46.8011
-46.9932
-47.5685
-50.029
-46.1435
-46.147
-46.1541
-46.1649
-46.1795
-46.1982
-46.2215
-46.2505
-46.2875
-46.3371
-46.4096
-46.524
-46.6998
-46.8292
-45.5932
-45.8222
-45.8255
-45.8322
-45.8423
-45.856
-45.8738
-45.896
-45.924
-45.96
-46.0091
-46.0823
-46.2043
-46.4386
-47.0381
-49.5351
-45.4987
-45.5017
-45.5079
-45.5172
-45.5299
-45.5462
-45.5666
-45.5918
-45.6233
-45.6643
-45.7215
-45.8065
-45.9239
-45.9293
-44.3151
-45.173
-45.1758
-45.1814
-45.1898
-45.2013
-45.2159
-45.2338
-45.2551
-45.28
-45.3084
-45.3416
-45.3862
-45.4867
-45.9453
-48.8695
-44.8454
-44.8479
-44.8528
-44.8604
-44.8705
-44.8833
-44.8986
-44.916
-44.934
-44.9493
-44.9538
-44.927
-44.8009
-44.2493
-41.185
-44.5161
-44.5183
-44.5225
-44.5291
-44.5378
-44.5489
-44.562
-44.5764
-44.59
-44.5977
-44.5879
-44.5367
-44.4105
-44.2981
-45.6422
-44.1854
-44.1871
-44.1907
-44.1962
-44.2036
-44.2131
-44.2245
-44.2374
-44.25
-44.2581
-44.2507
-44.1984
-44.0104
-43.3355
-40.4468
-43.8533
-43.8547
-43.8575
-43.8619
-43.8679
-43.8759
-43.8861
-43.8985
-43.9132
-43.9293
-43.9447
-43.9544
-43.9483
-43.9103
-43.8321
-43.5203
-43.5212
-43.5232
-43.5263
-43.5309
-43.5372
-43.546
-43.5581
-43.5752
-43.6009
-43.6426
-43.7212
-43.9082
-44.513
-47.1636
-43.1865
-43.187
-43.188
-43.1898
-43.1925
-43.1968
-43.2035
-43.2141
-43.2314
-43.2612
-43.3147
-43.4128
-43.578
-43.695
-42.3391
-42.8524
-42.8523
-42.8523
-42.8524
-42.8531
-42.8548
-42.8583
-42.8654
-42.879
-42.9051
-42.9557
-43.0577
-43.2811
-43.8999
-46.5711
-42.5182
-42.5175
-42.5163
-42.5147
-42.5129
-42.5113
-42.5107
-42.5122
-42.5179
-42.5317
-42.5609
-42.6182
-42.7096
-42.6794
-40.9024
-42.1844
-42.1831
-42.1806
-42.1769
-42.1724
-42.1671
-42.1616
-42.1561
-42.1512
-42.1475
-42.1462
-42.155
-42.2224
-42.6719
-45.7575
-41.8514
-41.8494
-41.8455
-41.8398
-41.8323
-41.8231
-41.8123
-41.7996
-41.7837
-41.7614
-41.7244
-41.651
-41.4699
-40.8336
-37.5157
-41.5196
-41.5169
-41.5116
-41.5037
-41.4932
-41.4802
-41.4644
-41.4453
-41.4206
-41.3854
-41.3275
-41.2216
-41.0335
-40.8572
-42.2121
-41.1896
-41.1862
-41.1794
-41.1693
-41.1558
-41.1391
-41.1189
-41.0947
-41.0649
-41.025
-40.9634
-40.8492
-40.5889
-39.8174
-36.7333
-40.8618
-40.8577
-40.8494
-40.837
-40.8206
-40.8003
-40.7761
-40.7482
-40.7163
-40.6796
-40.6354
-40.5783
-40.4991
-40.3834
-40.2322
-40.5367
-40.5319
-40.5221
-40.5074
-40.488
-40.464
-40.4359
-40.4043
-40.371
-40.3391
-40.316
-40.3227
-40.4345
-40.9737
-43.6279
-40.215
-40.2093
-40.198
-40.181
-40.1585
-40.1306
-40.0979
-40.0618
-40.0247
-39.9923
-39.9752
-39.9942
-40.073
-40.0951
-38.61
-39.8969
-39.8905
-39.8777
-39.8583
-39.8325
-39.8004
-39.7624
-39.7199
-39.6754
-39.6345
-39.6087
-39.6241
-39.7509
-40.2629
-42.8215
-39.5832
-39.5761
-39.5617
-39.5399
-39.5107
-39.4741
-39.4301
-39.3794
-39.3236
-39.266
-39.2131
-39.1765
-39.1612
-39.0093
-37.1094
-39.2743
-39.2664
-39.2506
-39.2265
-39.194
-39.1527
-39.1023
-39.0425
-38.973
-38.8939
-38.8055
-38.7142
-38.6662
-38.9693
-41.7827
-38.9707
-38.9622
-38.945
-38.9188
-38.8832
-38.8376
-38.781
-38.7123
-38.6293
-38.528
-38.3993
-38.2216
-37.9275
-37.1858
-33.8851
-38.6728
-38.6637
-38.6454
-38.6174
-38.5792
-38.5299
-38.4681
-38.3921
-38.2984
-38.1808
-38.0262
-37.8098
-37.4995
-37.1789
-38.2249
-38.381
-38.3715
-38.3524
-38.323
-38.2828
-38.2306
-38.1651
-38.0841
-37.9842
-37.859
-37.6954
-37.463
-37.0786
-36.2225
-33.3137
-38.0956
-38.0859
-38.0661
-38.0359
-37.9944
-37.9405
-37.8728
-37.7894
-37.6876
-37.5637
-37.4114
-37.2219
-36.9853
-36.6912
-36.3654
-37.8168
-37.8069
-37.787
-37.7564
-37.7144
-37.6598
-37.5914
-37.5075
-37.4066
-37.2877
-37.1523
-37.0134
-36.9318
-37.1815
-39.1936
-37.5445
-37.5348
-37.515
-37.4846
-37.4429
-37.3887
-37.3207
-37.2375
-37.1381
-37.0227
-36.8948
-36.7651
-36.6482
-36.4476
-34.9988
-37.2788
-37.2693
-37.2501
-37.2205
-37.1798
-37.1269
-37.0604
-36.9788
-36.8808
-36.7661
-36.6377
-36.5078
-36.4227
-36.5799
-38.2241
-37.0195
-37.0105
-36.992
-36.9638
-36.925
-36.8745
-36.8106
-36.7316
-36.6351
-36.5187
-36.3804
-36.2195
-36.029
-35.6792
-33.9985
-36.7663
-36.7578
-36.7406
-36.7143
-36.6781
-36.631
-36.5714
-36.4967
-36.4034
-36.2862
-36.1378
-35.9518
-35.7459
-35.7022
-37.2046
-36.5187
-36.5109
-36.4952
-36.4713
-36.4386
-36.3962
-36.3425
-36.2747
-36.1883
-36.075
-35.9203
-35.6978
-35.35
-34.6511
-32.2806
-36.2763
-36.2693
-36.2553
-36.2342
-36.2056
-36.169
-36.1232
-36.0658
-35.992
-35.8923
-35.7489
-35.5309
-35.1979
-34.7603
-34.8905
-36.0385
-36.0324
-36.0201
-36.0019
-35.9779
-35.948
-35.912
-35.8684
-35.8137
-35.7395
-35.628
-35.4438
-35.1185
-34.4746
-32.8068
-35.8048
-35.7994
-35.7888
-35.7734
-35.7539
-35.7312
-35.706
-35.6789
-35.6491
-35.6123
-35.5564
-35.4548
-35.2602
-34.8994
-34.3557
-35.5745
-35.5697
-35.5604
-35.5475
-35.532
-35.5158
-35.5012
-35.4913
-35.4894
-35.498
-35.5155
-35.5304
-35.5173
-35.4507
-35.5305
-35.3473
-35.3428
-35.3344
-35.323
-35.3104
-35.2991
-35.2932
-35.2982
-35.3225
-35.3772
-35.4751
-35.6254
-35.8114
-35.9
-35.4301
-35.1229
-35.1185
-35.1102
-35.0992
-35.0876
-35.0786
-35.0774
-35.0919
-35.1347
-35.2259
-35.397
-35.6957
-36.1732
-36.7365
-36.341
-34.9013
-34.8965
-34.8875
-34.8755
-34.8626
-34.8525
-34.8506
-34.866
-34.9134
-35.0186
-35.2292
-35.6419
-36.4754
-38.2383
-42.0688
-34.6829
-34.6773
-34.6666
-34.652
-34.6356
-34.6205
-34.6119
-34.6179
-34.652
-34.7378
-34.9197
-35.2959
-36.1321
-38.3038
-45.3723
-47.0865
-39.7736
-37.4915
-36.5985
-36.1875
-35.9817
-35.8778
-35.8293
-35.8119
-35.8114
-35.8193
-35.8302
-35.8407
-35.8487
-35.853
-44.0697
-39.7276
-37.8146
-36.9184
-36.4705
-36.2365
-36.1139
-36.0529
-36.0268
-36.0202
-36.0236
-36.0313
-36.0396
-36.0463
-36.0499
-37.317
-37.994
-37.4317
-36.9269
-36.6037
-36.4135
-36.3072
-36.2523
-36.2282
-36.2218
-36.2247
-36.2318
-36.2395
-36.2456
-36.249
-36.8526
-37.1205
-37.009
-36.8093
-36.6436
-36.5316
-36.4648
-36.4304
-36.4172
-36.4166
-36.4228
-36.4315
-36.4401
-36.4467
-36.4502
-36.2057
-36.5099
-36.6478
-36.6678
-36.6452
-36.6178
-36.6
-36.5939
-36.5973
-36.6067
-36.6188
-36.6311
-36.6418
-36.6495
-36.6536
-35.4914
-36.0141
-36.3687
-36.5559
-36.649
-36.697
-36.7269
-36.7509
-36.7733
-36.7946
-36.8143
-36.8315
-36.8452
-36.8547
-36.8596
-34.2774
-35.6344
-36.2061
-36.509
-36.683
-36.7884
-36.8581
-36.9092
-36.9498
-36.9835
-37.0115
-37.0341
-37.0513
-37.0628
-37.0687
-35.7777
-35.7995
-36.2302
-36.5517
-36.7635
-36.9041
-37.0022
-37.0748
-37.1312
-37.1762
-37.2121
-37.2402
-37.2609
-37.2747
-37.2816
-33.6128
-35.6801
-36.3303
-36.6703
-36.8926
-37.049
-37.1639
-37.2517