/*--------------------------------*- C++ -*----------------------------------*\
| =========                 |                                                 |
| \\      /  F ield         | OpenFOAM: The Open Source CFD Toolbox           |
|  \\    /   O peration     | Version:  5.x                                   |
|   \\  /    A nd           | Web:      www.OpenFOAM.org                      |
|    \\/     M anipulation  |                                                 |
\*---------------------------------------------------------------------------*/
FoamFile
{
    version     2.0;
    format      ascii;
    class       volScalarField;
    location    "2.2";
    object      gradTy;
}
// * * * * * * * * * * * * * * * * * * * * * * * * * * * * * * * * * * * * * //

dimensions      [0 -1 0 1 0 0 0];

internalField   nonuniform List<scalar> 
6300
(
32275.4
32226.1
32176.8
32127.7
32078.7
32029.8
31981.1
31932.6
31884.3
31836.3
31788.7
31741.4
31694.4
31647.9
31601.8
-0.0240201
-0.0721557
-0.120558
-0.169355
-0.218602
-0.268249
-0.318111
-0.367851
-0.416977
-0.464856
-0.510774
-0.554028
-0.59406
-0.630618
-0.663889
-0.0399261
-0.119955
-0.200481
-0.281751
-0.363887
-0.446835
-0.530308
-0.613751
-0.696321
-0.776906
-0.854208
-0.926904
-0.993894
-1.0546
-1.10925
-0.0556601
-0.167256
-0.279651
-0.393265
-0.508341
-0.62487
-0.742505
-0.860492
-0.977614
-1.0922
-1.2022
-1.30545
-1.39998
-1.48459
-1.55937
-0.0711135
-0.213753
-0.357596
-0.503307
-0.651329
-0.801781
-0.95433
-1.10807
-1.26142
-1.41204
-1.55693
-1.69267
-1.81594
-1.92437
-2.01751
-0.086146
-0.259032
-0.433652
-0.611009
-0.791854
-0.976553
-1.16491
-1.356
-1.54789
-1.73755
-1.92074
-2.09228
-2.24668
-2.37939
-2.48854
-0.100584
-0.30257
-0.506959
-0.715203
-0.928498
-1.14763
-1.37274
-1.60306
-1.83654
-2.06947
-2.29616
-2.50899
-2.69907
-2.85793
-2.98053
-0.114204
-0.343693
-0.576391
-0.814316
-1.05927
-1.31267
-1.5753
-1.84692
-2.1257
-2.40756
-2.68537
-2.94841
-3.18261
-3.37268
-3.50682
-0.126738
-0.381592
-0.640569
-0.906363
-1.18155
-1.46844
-1.76882
-2.08353
-2.4117
-2.74963
-3.0893
-3.41658
-3.71022
-3.94328
-4.09012
-0.137886
-0.415349
-0.697898
-0.988976
-1.29207
-1.61064
-1.94795
-2.30663
-2.68786
-3.0899
-3.50553
-3.91832
-4.29833
-4.59999
-4.76972
-0.147339
-0.443999
-0.746666
-1.05953
-1.38706
-1.73405
-2.10564
-2.50709
-2.94315
-3.41651
-3.9245
-4.45275
-4.96464
-5.38844
-5.61537
-0.1548
-0.466621
-0.7852
-1.11538
-1.46252
-1.83279
-2.2334
-2.67288
-3.16107
-3.70841
-4.32312
-5.0034
-5.71885
-6.37351
-6.75746
-0.160035
-0.482464
-0.8121
-1.15421
-1.51481
-1.90112
-2.32222
-2.78988
-3.31976
-3.93284
-4.65603
-5.5187
-6.53356
-7.62896
-8.46312
-0.162903
-0.491075
-0.82649
-1.1745
-1.54131
-1.93461
-2.36442
-2.84457
-3.39518
-4.04706
-4.84928
-5.88156
-7.2674
-9.14531
-11.332
-0.163397
-0.492417
-0.828249
-1.17592
-1.54126
-1.93152
-2.3562
-2.82871
-3.36925
-4.0108
-4.81227
-5.89059
-7.50892
-10.3527
-16.5253
31559.9
31522.2
31484.8
31447.8
31411.1
31374.7
31338.8
31303.2
31268.1
31233.4
31199.1
31165.3
31132
31099.2
31066.8
31034.9
31003.6
30972.7
30942.4
30912.5
30883.2
30854.3
30825.9
30798
30770.5
30743.4
30716.8
30690.5
30664.6
30639.1
30613.8
30588.9
30564.2
30539.8
30515.6
30491.6
30467.8
30444.2
30420.7
30397.3
30374
30350.8
30327.7
30304.6
30281.6
30258.5
30235.5
30212.4
30189.3
30166.2
30143
30119.6
30096.2
30072.6
30048.9
30025
30000.9
29976.6
29952.1
29927.3
29902.2
29876.8
29851.2
29825.2
29798.9
29772.2
29745.2
29717.8
29690
29661.9
29633.4
29604.5
29575.2
29545.4
29515.3
29484.8
29453.9
29422.5
29390.8
29358.6
29326
29293
29259.7
29225.9
29191.7
29157.1
29122.1
29086.7
29051
29014.8
-0.692022
-0.71657
-0.74093
-0.765968
-0.792424
-0.820772
-0.851106
-0.883085
-0.915963
-0.948683
-0.980028
-1.00878
-1.03386
-1.05444
-1.06992
-1.07996
-1.08437
-1.08306
-1.07599
-1.06317
-1.04467
-1.02069
-0.991507
-0.957568
-0.919415
-0.877669
-0.832984
-0.78602
-0.737424
-0.687821
-0.637798
-0.587892
-0.538561
-0.49016
-0.44293
-0.397004
-0.352435
-0.309231
-0.267381
-0.226869
-0.187657
-0.149659
-0.112698
-0.0764886
-0.0406371
-0.00467773
0.0318671
0.0694161
0.108266
0.14855
0.190227
0.233102
0.276856
0.32109
0.365356
0.40918
0.452086
0.493609
0.533333
0.57092
0.606137
0.638872
0.669112
0.696919
0.722371
0.745535
0.766437
0.78508
0.801469
0.815648
0.827723
0.837859
0.84625
0.853076
0.858467
0.862485
0.865141
0.866431
0.866376
0.865046
0.862548
0.858975
0.85435
0.848553
0.841295
0.832128
0.820493
0.805805
0.787545
0.765342
-1.15494
-1.19453
-1.23376
-1.27431
-1.31765
-1.36474
-1.41584
-1.47032
-1.52679
-1.58327
-1.63745
-1.68708
-1.73023
-1.76545
-1.79183
-1.80887
-1.81637
-1.81424
-1.80244
-1.78095
-1.74985
-1.70939
-1.66006
-1.60263
-1.53806
-1.46744
-1.39191
-1.31261
-1.23062
-1.14701
-1.06279
-0.978884
-0.896103
-0.815054
-0.736125
-0.659499
-0.585211
-0.513225
-0.443508
-0.376053
-0.310849
-0.247806
-0.186669
-0.126953
-0.0679478
-0.00878074
0.0514558
0.11356
0.178091
0.245289
0.315058
0.387016
0.460571
0.535004
0.60953
0.68333
0.755572
0.825439
0.892181
0.955192
1.01407
1.06864
1.11895
1.16516
1.20748
1.24603
1.28087
1.31193
1.33917
1.36263
1.38249
1.39907
1.41277
1.42394
1.43283
1.43951
1.44394
1.44605
1.44586
1.44348
1.43917
1.4332
1.42569
1.4165
1.40513
1.39074
1.37229
1.34866
1.31885
1.28214
-1.62058
-1.67291
-1.7246
-1.77854
-1.83736
-1.90287
-1.97559
-2.05459
-2.13753
-2.22105
-2.30131
-2.37461
-2.43791
-2.48911
-2.52708
-2.55143
-2.56213
-2.55925
-2.54275
-2.51249
-2.46841
-2.41076
-2.34021
-2.2579
-2.16533
-2.0642
-1.95621
-1.843
-1.72611
-1.60704
-1.48727
-1.36823
-1.25113
-1.13687
-1.02599
-0.918625
-0.814674
-0.713964
-0.616398
-0.522023
-0.430963
-0.343255
-0.258646
-0.176458
-0.0955618
-0.0145035
0.0682667
0.154113
0.243973
0.338212
0.436616
0.538501
0.642882
0.748636
0.854594
0.959563
1.06231
1.16159
1.25622
1.34523
1.428
1.50435
1.57447
1.6388
1.69778
1.75168
1.8005
1.84405
1.88208
1.91456
1.94175
1.96422
1.9827
1.99787
2.01013
2.01953
2.02584
2.02878
2.02825
2.02447
2.01797
2.00942
1.99924
1.98737
1.97309
1.95502
1.93136
1.90021
1.85991
1.80924
-2.09099
-2.15223
-2.2122
-2.27577
-2.34749
-2.43062
-2.52632
-2.63319
-2.74745
-2.86355
-2.9752
-3.07654
-3.163
-3.23182
-3.28196
-3.31362
-3.32744
-3.32388
-3.30286
-3.2639
-3.20651
-3.1307
-3.03727
-2.92791
-2.80491
-2.6708
-2.528
-2.37865
-2.22467
-2.06801
-1.91067
-1.75471
-1.60197
-1.45377
-1.31072
-1.17275
-1.03939
-0.910083
-0.784597
-0.66312
-0.54615
-0.434133
-0.327029
-0.223989
-0.123296
-0.0225744
0.080767
0.189011
0.303675
0.425266
0.553294
0.686525
0.823353
0.962113
1.10122
1.23913
1.37418
1.50458
1.6285
1.74439
1.85133
1.94916
2.03848
2.12029
2.19555
2.26479
2.32789
2.38424
2.43313
2.47425
2.50793
2.53523
2.55753
2.57612
2.59168
2.60413
2.61273
2.61664
2.61543
2.60947
2.59986
2.58808
2.57532
2.56183
2.54662
2.52744
2.50129
2.46503
2.41593
2.35209
-2.56936
-2.63332
-2.69459
-2.76123
-2.84115
-2.94027
-3.06094
-3.20117
-3.35473
-3.51244
-3.66395
-3.7999
-3.9135
-4.00141
-4.06345
-4.10148
-4.11778
-4.11363
-4.08879
-4.04183
-3.97113
-3.87598
-3.75727
-3.61754
-3.46046
-3.2899
-3.10921
-2.92092
-2.7271
-2.52992
-2.33205
-2.13654
-1.94626
-1.76323
-1.58809
-1.42023
-1.25822
-1.10068
-0.947
-0.797698
-0.654173
-0.517908
-0.389525
-0.268108
-0.151037
-0.0343855
0.0862416
0.214698
0.353442
0.503093
0.662522
0.829416
1.00109
1.17513
1.34963
1.52285
1.69281
1.85695
2.01238
2.15651
2.28782
2.4063
2.51336
2.61125
2.70204
2.78679
2.86505
2.93522
2.99545
3.0447
3.08339
3.11349
3.13777
3.15879
3.1778
3.19432
3.20643
3.21192
3.20954
3.1998
3.18495
3.16823
3.1525
3.13886
3.12592
3.10996
3.08587
3.04841
2.99326
2.9175
-3.06142
-3.11831
-3.16924
-3.22761
-3.30723
-3.41894
-3.56752
-3.75003
-3.95617
-4.17036
-4.37523
-4.55553
-4.70111
-4.80837
-4.87963
-4.92075
-4.93764
-4.93327
-4.90667
-4.85402
-4.77104
-4.65527
-4.5076
-4.33221
-4.13545
-3.92365
-3.70139
-3.47118
-3.23438
-2.99285
-2.75003
-2.5108
-2.28011
-2.06127
-1.85495
-1.65921
-1.47056
-1.28565
-1.10301
-0.923855
-0.751627
-0.590206
-0.441849
-0.305816
-0.178007
-0.0517471
0.0806284
0.225769
0.387714
0.567064
0.76124
0.965682
1.17567
1.38779
1.60016
1.81158
2.02012
2.22217
2.41285
2.58743
2.74313
2.88021
3.00182
3.11279
3.21762
3.3185
3.41423
3.50091
3.57399
3.63073
3.67164
3.70052
3.72311
3.74474
3.76793
3.79126
3.81006
3.81894
3.81466
3.79786
3.77312
3.74736
3.72704
3.71523
3.70994
3.70454
3.69
3.65759
3.60056
3.51467
-3.57746
-3.61187
-3.63316
-3.6634
-3.7271
-3.84458
-4.02527
-4.26497
-4.54609
-4.84182
-5.12202
-5.36127
-5.544
-5.66728
-5.73932
-5.77503
-5.78825
-5.78501
-5.76216
-5.71
-5.61824
-5.48062
-5.29791
-5.07775
-4.83218
-4.5725
-4.30508
-4.03099
-3.7485
-3.45766
-3.16285
-2.87278
-2.5969
-2.34127
-2.10655
-1.88794
-1.67746
-1.46729
-1.25392
-1.03997
-0.833432
-0.643586
-0.476307
-0.331548
-0.2026
-0.0777581
0.0567993
0.21282
0.397112
0.609889
0.845394
1.0942
1.34745
1.60034
1.85233
2.10479
2.35705
2.6041
2.83685
3.04585
3.22563
3.37677
3.50599
3.62353
3.7393
3.858
3.97685
4.08658
4.17647
4.24
4.27762
4.29706
4.31029
4.32888
4.3583
4.39516
4.42843
4.44537
4.43827
4.40778
4.36321
4.31909
4.28978
4.28263
4.29455
4.3127
4.32024
4.3026
4.24976
4.15622
-4.13633
-4.12427
-4.08408
-4.05088
-4.06936
-4.17904
-4.39789
-4.72013
-5.11487
-5.5355
-5.92768
-6.2483
-6.47241
-6.59988
-6.6512
-6.66159
-6.66246
-6.66491
-6.65976
-6.62291
-6.5314
-6.37079
-6.14205
-5.85982
-5.54912
-5.23241
-4.91831
-4.60278
-4.27457
-3.9281
-3.56879
-3.21422
-2.88445
-2.59108
-2.33489
-2.1049
-1.88384
-1.65349
-1.40561
-1.14536
-0.891168
-0.664436
-0.47831
-0.334482
-0.221254
-0.117743
0.0020679
0.159152
0.365474
0.619952
0.910358
1.21629
1.51971
1.81418
2.10377
2.39826
2.70148
3.00658
3.29498
3.54629
3.74931
3.90485
4.02692
4.13676
4.25671
4.39721
4.55251
4.70076
4.81685
4.88648
4.9097
4.90249
4.88964
4.89738
4.93787
5.00416
5.07024
5.10634
5.09552
5.03791
4.9526
4.86944
4.82058
4.82252
4.87016
4.93609
4.98671
4.99828
4.95749
4.85971
-4.77288
-4.67696
-4.52467
-4.36363
-4.27986
-4.35579
-4.62108
-5.07028
-5.64578
-6.26958
-6.8358
-7.27372
-7.53941
-7.64156
-7.62147
-7.56128
-7.53384
-7.55523
-7.60244
-7.614
-7.54355
-7.35858
-7.0627
-6.68243
-6.27426
-5.88814
-5.53316
-5.19246
-4.82655
-4.41669
-3.96754
-3.51967
-3.11931
-2.78712
-2.52529
-2.30882
-2.10344
-1.86483
-1.57505
-1.242
-0.909386
-0.626883
-0.419525
-0.293509
-0.226115
-0.18144
-0.106629
0.0342318
0.264088
0.577818
0.952446
1.34144
1.70423
2.03439
2.34749
2.67844
3.04246
3.43232
3.80574
4.11539
4.34047
4.48022
4.56449
4.63444
4.74354
4.91406
5.13728
5.36013
5.52299
5.59866
5.58445
5.51487
5.43818
5.41755
5.47911
5.61228
5.75404
5.83369
5.81899
5.70676
5.53775
5.36929
5.27711
5.29554
5.41834
5.5805
5.70839
5.76839
5.74637
5.64999
-5.55135
-5.31044
-4.97748
-4.56469
-4.25995
-4.25931
-4.57881
-5.23784
-6.10637
-7.0858
-7.92788
-8.54635
-8.84111
-8.85846
-8.64869
-8.41302
-8.33412
-8.40758
-8.5957
-8.72246
-8.71988
-8.50535
-8.1042
-7.54455
-6.967
-6.49841
-6.12688
-5.81788
-5.44127
-4.96135
-4.36395
-3.75626
-3.25559
-2.88147
-2.65009
-2.49651
-2.37069
-2.14967
-1.80669
-1.33792
-0.855434
-0.48117
-0.243739
-0.168333
-0.198534
-0.288871
-0.310837
-0.219309
0.0413989
0.447393
0.973188
1.50357
1.93495
2.2783
2.56458
2.91001
3.34518
3.88067
4.40722
4.80509
5.05328
5.13417
5.12134
5.07438
5.14049
5.35357
5.72106
6.10434
6.35312
6.43867
6.33727
6.13584
5.90433
5.81767
5.91554
6.20634
6.52558
6.6952
6.68121
6.45572
6.12045
5.75766
5.57274
5.6167
5.90831
6.27273
6.52635
6.6552
6.64096
6.56312
-6.5925
-6.07599
-5.54489
-4.60992
-3.8021
-3.702
-4.04785
-5.10397
-6.40753
-8.10003
-9.34224
-10.2854
-10.5425
-10.4027
-9.71347
-9.03928
-8.91528
-9.09507
-9.67757
-10.0175
-10.2017
-9.92111
-9.37417
-8.43262
-7.50304
-6.9691
-6.6307
-6.54083
-6.20491
-5.67531
-4.77531
-3.83881
-3.20968
-2.77032
-2.6629
-2.64427
-2.77504
-2.61015
-2.21946
-1.45354
-0.645523
-0.138261
0.16553
0.109071
-0.0842077
-0.494611
-0.678307
-0.716267
-0.390243
0.144771
0.987703
1.80868
2.29287
2.60486
2.69695
3.01283
3.50395
4.34242
5.19461
5.71094
6.00766
5.92371
5.72797
5.35216
5.32646
5.57145
6.28285
7.04302
7.41909
7.5487
7.23496
6.80096
6.16272
5.95291
6.07499
6.76033
7.51345
7.822
7.84889
7.36366
6.74369
5.89083
5.53971
5.58212
6.2943
7.12539
7.5248
7.7489
7.62801
7.65644
-8.16128
-6.86237
-6.69379
-4.47187
-2.32486
-2.50222
-2.49389
-4.61355
-6.14844
-9.76249
-11.1871
-13.012
-12.8154
-12.7378
-10.7564
-8.87307
-9.05882
-9.20248
-11.1086
-11.5365
-12.3525
-11.7203
-11.2122
-9.30331
-7.46919
-7.15805
-6.77648
-7.61793
-7.2473
-6.9225
-5.23909
-3.47859
-2.89037
-2.18102
-2.54771
-2.57678
-3.60504
-3.39567
-3.17245
-1.62969
-0.00246078
0.497706
1.09362
0.58356
0.342809
-1.02679
-1.25566
-1.73739
-1.1229
-0.601316
1.03377
2.59867
2.89871
3.24802
2.50701
2.86322
3.16249
4.78429
6.46555
6.93291
7.51011
6.87414
6.59378
5.12567
5.12249
5.11755
6.77425
8.53464
8.83978
9.29699
8.30568
7.76
5.80402
5.61007
5.42317
7.21657
9.14131
9.35426
9.75388
8.46549
7.70218
5.30136
4.93991
4.58299
6.50897
8.59961
8.77565
9.33937
8.40003
9.06691
-11.2055
-6.02097
-10.7992
-4.22569
2.49988
-1.56933
2.12495
-4.96463
-2.89475
-14.5771
-12.455
-18.6487
-14.9164
-17.8137
-11.6577
-5.72667
-9.26231
-6.77132
-14.6677
-12.496
-16.5883
-13.3401
-15.067
-10.0657
-5.24171
-7.44789
-5.16062
-10.4399
-8.22327
-10.1256
-5.81344
-1.42985
-2.74508
-0.0418764
-2.91831
-1.07018
-6.21696
-4.20096
-6.0254
-1.92739
2.26369
0.995874
3.61432
0.670235
2.39527
-3.20177
-1.46916
-4.33736
-1.72214
-2.95125
1.18042
5.20961
3.43308
5.46064
0.736467
2.79494
0.915871
5.1398
9.48376
7.99592
10.7587
7.31163
9.16903
2.7887
4.92004
2.26983
7.11523
12.1207
10.0403
13.13
8.7335
10.7487
2.90677
5.25585
1.9185
7.48243
13.2329
10.6165
14.0884
8.80996
11.0175
1.77406
4.33244
0.295385
6.48547
12.8298
9.46718
13.0933
6.858
11.5661
-21.5492
9.16715
-31.2508
-4.1981
22.8693
-11.8157
22.2727
-18.5052
20.1623
-39.2701
-1.74789
-38.5789
-7.47074
-35.9263
-12.2347
11.0519
-18.144
10.6179
-32.725
-4.43496
-31.3944
-7.79576
-28.6102
-10.5728
7.10946
-14.2081
7.35124
-24.0559
-3.26777
-22.2777
-6.49045
8.8254
-8.38615
10.1322
-10.0921
10.5093
-19.1433
0.52403
-17.4067
-2.359
12.3909
-4.102
14.1453
-5.9665
14.9917
-15.9315
4.94251
-14.8336
3.21439
-13.0208
1.47466
16.181
-1.51036
17.3959
-10.8011
8.39671
-10.1191
5.3225
20.8999
2.93817
22.9494
0.110734
23.6067
-11.8051
11.603
-11.3717
7.22564
25.9106
3.79599
27.7431
-0.071544
27.9316
-14.6655
13.0901
-14.404
7.47969
29.3728
3.11144
31.0234
-1.62526
30.8221
-18.7477
13.2225
-18.7191
6.23997
31.038
0.0950562
31.0475
-10.4422
20.9813
28974.7
28930.4
28885.6
28840.4
28794.8
28748.8
28702.5
28655.8
28608.9
28561.8
28514.4
28466.9
28419.3
28371.6
28323.9
0.736384
0.698885
0.655968
0.608471
0.557446
0.504007
0.449198
0.393903
0.338801
0.284352
0.230808
0.178243
0.126583
0.0756421
0.0251618
1.23381
1.17075
1.09829
1.01798
0.931717
0.841506
0.749183
0.656278
0.563937
0.472912
0.383593
0.296066
0.210167
0.125554
0.0417583
1.74147
1.65196
1.54841
1.43337
1.30987
1.18105
1.04968
0.918026
0.787701
0.659721
0.534557
0.41224
0.292454
0.174641
0.0580721
2.26469
2.14719
2.01003
1.85718
1.69334
1.52309
1.35042
1.17838
1.00907
0.84367
0.682641
0.525855
0.372753
0.222473
0.0739578
2.81011
2.66212
2.48733
2.29201
2.08319
1.86753
1.65047
1.43595
1.22645
1.02318
0.826433
0.635753
0.450207
0.268527
0.0892395
3.38654
3.20399
2.98531
2.74042
2.47997
2.21341
1.94798
1.68847
1.43751
1.19612
0.964093
0.74047
0.523763
0.31217
0.103706
4.00595
3.78218
3.50967
3.20454
2.88303
2.55832
2.23967
1.93244
1.63899
1.35961
1.09329
0.838219
0.592167
0.352661
0.117113
4.68511
4.40903
4.0666
3.68503
3.2893
2.89735
2.5201
2.16271
1.82639
1.51001
1.21117
0.926897
0.653985
0.389166
0.129186
5.44914
5.10159
4.66216
4.17926
3.69143
3.22161
2.78079
2.37203
1.99392
1.64285
1.31444
1.00416
0.707666
0.420806
0.139641
6.34064
5.88518
5.30047
4.67782
4.07474
3.51641
3.00929
2.55075
2.13443
1.75303
1.39953
1.06761
0.751673
0.446726
0.148204
7.4456
6.79852
5.97709
5.15726
4.413
3.75954
3.18899
2.68719
2.24002
1.8353
1.46301
1.11503
0.784654
0.466198
0.154646
8.96772
7.88623
6.65185
5.56165
4.66059
3.9196
3.29979
2.76894
2.30314
1.8851
1.50215
1.1448
0.805675
0.478741
0.158818
11.4619
9.1262
7.18158
5.77655
4.74786
3.9583
3.32154
2.78559
2.31849
1.89976
1.51562
1.15631
0.814462
0.484245
0.160692
16.1782
9.97475
7.17192
5.61496
4.59562
3.84395
3.24241
2.73338
2.28544
1.87978
1.50423
1.15027
0.811575
0.483055
0.160383
-0.161963
-0.48787
-0.819828
-1.16224
-1.52012
-1.89953
-2.3082
-2.75662
-3.26005
-3.8425
-4.54554
-5.44978
-6.73368
-8.85317
-13.1373
-0.159127
-0.479059
-0.804093
-1.13784
-1.48426
-1.84784
-2.23381
-2.64844
-3.09928
-3.59506
-4.14385
-4.74315
-5.33323
-5.58213
-3.86994
-0.155117
-0.466685
-0.782272
-1.1046
-1.43644
-1.78054
-2.13947
-2.51507
-2.90722
-3.31066
-3.70694
-4.04281
-4.16966
-3.67251
-1.42525
-0.150173
-0.451497
-0.755732
-1.06471
-1.38005
-1.70291
-2.0335
-2.37014
-2.70721
-3.03108
-3.31184
-3.48763
-3.43926
-2.97808
-2.03606
-0.144541
-0.434267
-0.725863
-1.02036
-1.31839
-1.61985
-1.9233
-2.22487
-2.51627
-2.78123
-2.98947
-3.08819
-2.99518
-2.61752
-2.007
-0.138456
-0.415716
-0.693942
-0.973505
-1.25429
-1.53536
-1.81436
-2.08662
-2.34362
-2.57057
-2.74294
-2.822
-2.74847
-2.41857
-1.52796
-0.132122
-0.396471
-0.661056
-0.92575
-1.18995
-1.45225
-1.71007
-1.95895
-2.19176
-2.39762
-2.56098
-2.6618
-2.67955
-2.60887
-2.5525
-0.125707
-0.37704
-0.628058
-0.87829
-1.12685
-1.37221
-1.61193
-1.84239
-2.05856
-2.25407
-2.42222
-2.55923
-2.67186
-2.78909
-2.95726
-0.11934
-0.357806
-0.595568
-0.831941
-1.06591
-1.296
-1.52016
-1.73572
-1.93967
-2.12941
-2.30489
-2.4735
-2.66082
-2.93376
-3.46033
-0.113114
-0.33904
-0.564007
-0.787212
-1.00761
-1.22386
-1.43429
-1.63706
-1.83058
-2.01456
-2.19218
-2.37467
-2.59015
-2.90213
-3.46075
-0.107093
-0.32092
-0.533637
-0.744384
-0.952138
-1.15569
-1.35367
-1.54475
-1.72806
-1.90402
-2.07596
-2.25279
-2.4523
-2.69904
-2.98138
-0.101313
-0.303552
-0.504603
-0.70359
-0.899529
-1.09131
-1.27777
-1.45778
-1.63057
-1.79616
-1.9562
-2.11505
-2.28149
-2.47106
-2.7197
-0.0957958
-0.286989
-0.47697
-0.664872
-0.849751
-1.03058
-1.20627
-1.37575
-1.53798
-1.69207
-1.83713
-1.97194
-2.09447
-2.20189
-2.28884
-0.0905485
-0.27125
-0.450751
-0.628212
-0.802733
-0.973352
-1.13904
-1.29868
-1.45097
-1.59413
-1.72503
-1.83727
-1.91776
-1.94681
-1.95648
-0.0855696
-0.256325
-0.42592
-0.593551
-0.758374
-0.919493
-1.07594
-1.22664
-1.37022
-1.5046
-1.62577
-1.72455
-1.77663
-1.70506
-1.20738
-0.0808509
-0.242187
-0.402422
-0.5608
-0.716539
-0.86882
-1.01678
-1.15947
-1.29577
-1.42413
-1.54192
-1.64417
-1.72122
-1.75908
-1.78951
-0.0763799
-0.228797
-0.380185
-0.529842
-0.677055
-0.821093
-0.961214
-1.09668
-1.22678
-1.35089
-1.46873
-1.58121
-1.69287
-1.81816
-1.9894
-0.0721405
-0.216105
-0.359119
-0.500542
-0.639727
-0.77603
-0.908824
-1.03756
-1.16186
-1.2819
-1.39915
-1.5187
-1.65492
-1.84517
-2.18244
-0.0681151
-0.204056
-0.339131
-0.472757
-0.604354
-0.733349
-0.859198
-0.981445
-1.09985
-1.21474
-1.32784
-1.44453
-1.57932
-1.76993
-2.11868
-0.0642845
-0.192593
-0.32012
-0.446343
-0.570741
-0.692798
-0.812016
-0.927939
-1.04021
-1.14872
-1.25393
-1.35768
-1.46481
-1.58474
-1.71752
-0.0606294
-0.181656
-0.301987
-0.421159
-0.538708
-0.654167
-0.767066
-0.876907
-0.983119
-1.08491
-1.18093
-1.26838
-1.3413
-1.39048
-1.44211
-0.0571299
-0.171186
-0.284634
-0.397067
-0.508081
-0.617264
-0.724184
-0.828337
-0.929022
-1.02502
-1.11376
-1.18909
-1.23415
-1.19442
-0.85361
-0.0537662
-0.161124
-0.267959
-0.373925
-0.478681
-0.581883
-0.68317
-0.782116
-0.878111
-0.970069
-1.0558
-1.13074
-1.18577
-1.20733
-1.21393
-0.0505188
-0.151409
-0.251861
-0.35159
-0.450318
-0.547784
-0.643731
-0.737891
-0.829936
-0.919351
-1.00524
-1.08613
-1.1605
-1.23054
-1.31829
-0.0473682
-0.141984
-0.236242
-0.329914
-0.422791
-0.514693
-0.605481
-0.695083
-0.783523
-0.870994
-0.958033
-1.04599
-1.13811
-1.24133
-1.36802
-0.0442965
-0.132793
-0.221005
-0.308758
-0.395901
-0.482329
-0.568008
-0.65303
-0.737722
-0.822852
-0.910082
-1.00286
-1.1079
-1.2357
-1.39154
-0.0412868
-0.123785
-0.206064
-0.287993
-0.369469
-0.450441
-0.530941
-0.611157
-0.691559
-0.773176
-0.858177
-0.951139
-1.06176
-1.21049
-1.44179
-0.0383244
-0.114916
-0.191343
-0.26751
-0.343348
-0.418835
-0.494025
-0.569103
-0.644493
-0.721072
-0.800647
-0.887073
-0.989037
-1.12782
-1.36527
-0.0353968
-0.106149
-0.176781
-0.247225
-0.317434
-0.387394
-0.45714
-0.526782
-0.596542
-0.66681
-0.738267
-0.81214
-0.890643
-0.976505
-1.05998
-0.0324936
-0.097452
-0.162328
-0.227074
-0.291657
-0.35606
-0.420283
-0.484333
-0.54818
-0.611645
-0.674119
-0.733919
-0.787034
-0.826752
-0.866798
-0.0296058
-0.0887999
-0.147943
-0.207008
-0.26597
-0.324812
-0.383504
-0.441978
-0.500027
-0.557094
-0.611741
-0.660279
-0.692626
-0.676684
-0.487303
-0.026726
-0.0801706
-0.133594
-0.186985
-0.240334
-0.293628
-0.346837
-0.399873
-0.452503
-0.504153
-0.553518
-0.597824
-0.631654
-0.646981
-0.653045
-0.0238474
-0.071544
-0.119247
-0.166964
-0.214702
-0.262466
-0.310251
-0.35801
-0.405608
-0.452727
-0.498726
-0.542586
-0.58344
-0.623637
-0.681968
-0.0209635
-0.0629012
-0.104872
-0.146902
-0.189019
-0.231255
-0.273644
-0.316218
-0.359
-0.402012
-0.445335
-0.489377
-0.535593
-0.587614
-0.650528
-0.0180684
-0.0542241
-0.0904384
-0.126755
-0.163222
-0.199902
-0.236872
-0.274242
-0.312188
-0.351018
-0.391364
-0.434593
-0.483632
-0.543941
-0.623807
-0.0151563
-0.0454955
-0.075916
-0.106477
-0.137248
-0.168312
-0.199784
-0.23183
-0.264717
-0.298915
-0.335316
-0.375711
-0.423761
-0.486602
-0.576464
-0.0122224
-0.0367001
-0.0612787
-0.0860312
-0.11104
-0.136407
-0.162262
-0.188795
-0.216293
-0.245226
-0.276424
-0.311452
-0.353538
-0.410413
-0.507731
-0.00926203
-0.0278245
-0.0465042
-0.0653842
-0.0845568
-0.104129
-0.124236
-0.145054
-0.166828
-0.189908
-0.214805
-0.242236
-0.272967
-0.306058
-0.327331
-0.00627166
-0.0188579
-0.0315746
-0.0445124
-0.0577685
-0.0714506
-0.0856829
-0.100612
-0.116412
-0.133273
-0.151361
-0.170676
-0.190683
-0.209837
-0.231015
-0.00324824
-0.00979147
-0.0164761
-0.0233984
-0.0306584
-0.0383606
-0.0466145
-0.0555326
-0.0652183
-0.0757313
-0.0870008
-0.0985903
-0.108919
-0.112147
-0.0849629
-0.000189243
-0.000617855
-0.00119753
-0.00202972
-0.00321648
-0.00485917
-0.00705491
-0.00988805
-0.0134116
-0.0176119
-0.0223575
-0.0273391
-0.0320154
-0.0355202
-0.0379968
0.00290756
0.00866935
0.0142707
0.0196048
0.0245661
0.0290534
0.0329759
0.0362662
0.0389017
0.0409362
0.0425104
0.0437405
0.0441401
0.0404434
0.0165884
0.0060443
0.0180763
0.0299383
0.0415171
0.0527012
0.0633844
0.0734735
0.0829038
0.0916667
0.0998513
0.107677
0.115439
0.123204
0.130467
0.139764
0.00922307
0.0276094
0.0458158
0.0637216
0.0812066
0.0981535
0.114456
0.130033
0.144866
0.15906
0.172944
0.187182
0.202675
0.219138
0.22424
0.012446
0.0372752
0.0619147
0.0862358
0.110107
0.133395
0.155967
0.177705
0.198539
0.218524
0.23802
0.258098
0.28153
0.315758
0.384434
0.0157152
0.0470801
0.0782469
0.109079
0.139434
0.169157
0.198083
0.226034
0.252834
0.278368
0.302741
0.326728
0.352944
0.388515
0.447631
0.0190323
0.0570295
0.094823
0.13227
0.169218
0.205496
0.240901
0.275186
0.308038
0.339058
0.367778
0.39385
0.417918
0.444979
0.494961
0.0223984
0.0671273
0.111651
0.155824
0.199488
0.242461
0.284519
0.32536
0.364546
0.401384
0.434699
0.462401
0.480865
0.485578
0.48575
0.0258137
0.0773744
0.128732
0.179745
0.230255
0.280083
0.329004
0.376706
0.422712
0.466195
0.505562
0.537398
0.553414
0.529374
0.372607
0.0292777
0.0877686
0.146064
0.204028
0.261514
0.318355
0.374356
0.429253
0.482658
0.533901
0.581698
0.623411
0.653827
0.665383
0.668135
0.0327884
0.0983044
0.163636
0.228657
0.293235
0.35723
0.420493
0.482857
0.544129
0.604036
0.6621
0.717299
0.767383
0.807542
0.823271
0.0363434
0.108974
0.181433
0.253607
0.325378
0.396632
0.467272
0.53724
0.60657
0.675485
0.744533
0.814768
0.887876
0.966709
1.06249
0.0399395
0.119767
0.199438
0.278849
0.357894
0.436478
0.514536
0.592083
0.669323
0.74687
0.826182
0.910273
1.00444
1.11415
1.22091
0.0435733
0.130673
0.217633
0.304356
0.390744
0.476704
0.562172
0.647158
0.731882
0.817059
0.904548
0.998813
1.11024
1.26367
1.52617
0.0472409
0.141682
0.236
0.330106
0.423904
0.517289
0.610158
0.702433
0.794148
0.885667
0.978244
1.07546
1.18692
1.33748
1.58842
0.0509381
0.152781
0.254521
0.35608
0.457363
0.558248
0.658572
0.758113
0.85657
0.953567
1.04875
1.14225
1.23649
1.34163
1.48606
0.0546599
0.163956
0.273176
0.382256
0.49111
0.599608
0.707543
0.814561
0.920026
1.02275
1.12044
1.20856
1.27851
1.31854
1.35284
0.0583998
0.175187
0.291933
0.408597
0.525115
0.641372
0.757165
0.8721
0.985401
1.09546
1.19882
1.28751
1.34133
1.29946
0.927273
0.0621496
0.18645
0.310753
0.435049
0.559309
0.683471
0.807393
0.930787
1.05304
1.17285
1.2874
1.39068
1.47066
1.50979
1.53114
0.0658994
0.197716
0.329583
0.461532
0.593583
0.725744
0.857999
0.990276
1.12239
1.25391
1.38385
1.51004
1.62837
1.73248
1.81003
0.0696381
0.208949
0.348362
0.48795
0.627787
0.767963
0.908598
1.04989
1.19217
1.3361
1.48291
1.63488
1.796
1.97364
2.19032
0.0733538
0.220112
0.367025
0.5142
0.661763
0.809869
0.958753
1.10881
1.26081
1.4163
1.57842
1.75338
1.95217
2.18772
2.43525
0.0770351
0.231171
0.385508
0.540187
0.695366
0.851244
1.0081
1.1664
1.32704
1.4919
1.66502
1.85536
2.08284
2.3935
2.90644
0.080671
0.242093
0.403756
0.565829
0.728491
0.891945
1.05645
1.22236
1.39035
1.56177
1.73969
1.93155
2.15575
2.45884
2.95964
0.0842518
0.252848
0.421723
0.591065
0.761068
0.931924
1.10381
1.27689
1.45129
1.62712
1.8047
1.9853
2.17391
2.3869
2.66032
0.0877688
0.26341
0.439366
0.615845
0.793057
0.971187
1.15036
1.33051
1.51124
1.69128
1.86761
2.03348
2.17515
2.273
2.36927
0.0912137
0.273756
0.456645
0.640117
0.824408
1.00973
1.19621
1.38374
1.57166
1.75802
1.93779
2.09848
2.20684
2.1602
1.5592
0.0945787
0.28386
0.473519
0.66382
0.855044
1.04747
1.24133
1.4367
1.63318
1.82933
2.02124
2.19982
2.34617
2.43238
2.49735
0.0978575
0.293702
0.489946
0.686882
0.884843
1.08421
1.28541
1.48887
1.69493
1.90357
2.11396
2.32353
2.52726
2.71931
2.89628
0.101046
0.303267
0.50589
0.709228
0.913662
1.11968
1.32791
1.53923
1.75487
1.97661
2.20724
2.45129
2.71646
3.0167
3.38786
0.104143
0.31255
0.521336
0.730811
0.941378
1.15359
1.36826
1.5866
1.81056
2.04346
2.29118
2.56439
2.88131
3.26484
3.69091
0.107155
0.321567
0.536299
0.751631
0.967944
1.1858
1.40605
1.63005
1.86004
2.10001
2.35742
2.64711
2.99989
3.48342
4.26448
0.110097
0.330358
0.550843
0.771762
0.993431
1.21633
1.44123
1.66932
1.90258
2.14442
2.40123
2.68602
3.02765
3.49537
4.26809
0.112989
0.338991
0.565079
0.791365
1.01805
1.24547
1.47418
1.705
1.93915
2.17843
2.42559
2.68542
2.96784
3.2955
3.70093
0.115864
0.34756
0.57917
0.810681
1.04214
1.27371
1.50565
1.73834
1.97213
2.20693
2.44114
2.6691
2.8766
3.04158
3.22493
0.11876
0.356183
0.593324
0.830021
1.06615
1.30167
1.53658
1.77089
2.00439
2.23583
2.461
2.66698
2.81486
2.77487
2.02473
0.121721
0.364996
0.607777
0.849739
1.09058
1.33004
1.5679
1.804
2.03804
2.26907
2.49414
2.70516
2.88355
3.0013
3.11569
0.124795
0.374148
0.622787
0.870221
1.11595
1.35949
1.60042
1.83851
2.07374
2.30642
2.53702
2.76597
2.99431
3.23004
3.50938
0.12803
0.383788
0.638624
0.891873
1.14282
1.39072
1.6349
1.87497
2.11119
2.34517
2.58098
2.82716
3.09988
3.42843
3.86715
0.131473
0.394061
0.655549
0.915106
1.17178
1.42451
1.67221
1.91408
2.15017
2.38259
2.61771
2.86988
3.16662
3.55027
4.04314
0.13516
0.40509
0.6738
0.940321
1.20346
1.46175
1.71354
1.95717
2.19166
2.4181
2.64254
2.88158
3.17294
3.59619
4.31937
0.139115
0.416955
0.693557
0.967863
1.23847
1.50349
1.7605
2.00657
2.23869
2.45494
2.65718
2.8569
3.08762
3.43374
4.12072
0.143337
0.429669
0.714888
0.997949
1.27732
1.55076
1.81501
2.0656
2.2967
2.50146
2.67349
2.81063
2.92207
3.0345
3.14614
0.147791
0.443143
0.737698
1.03057
1.32027
1.60436
1.87897
2.13814
2.37295
2.57064
2.71398
2.78214
2.75577
2.63572
2.53662
0.152401
0.457155
0.761656
1.06536
1.36706
1.6645
1.95361
2.22753
2.47493
2.67751
2.8066
2.81923
2.65444
2.22232
1.29922
0.157041
0.471329
0.786145
1.1015
1.41679
1.73037
2.03875
2.33531
2.60799
2.83535
2.98003
2.97946
2.73867
2.14977
1.2252
0.16153
0.485121
0.810235
1.13764
1.46767
1.79981
2.13206
2.45962
2.77248
3.05056
3.25424
3.30644
3.06453
2.31025
0.97636
0.165646
0.497837
0.832703
1.17193
1.51704
1.86913
2.22857
2.59411
2.96108
3.31738
3.63356
3.83757
3.74608
2.8731
-0.0772023
0.169131
0.508678
0.852109
1.20211
1.5615
1.93331
2.32082
2.72755
3.15706
3.612
4.09066
4.57379
4.97016
4.87847
2.48612
0.171717
0.516801
0.866922
1.22571
1.59728
1.98652
2.39967
2.84516
3.33538
3.89011
4.54456
5.37002
6.5329
8.4817
12.614
12.3147
8.08627
6.1483
5.01882
4.23014
3.6117
3.09129
2.63367
2.21924
1.83589
1.47539
1.13175
0.80025
0.476975
0.158471
1.80741
4.36829
4.54037
4.19938
3.76158
3.32294
2.90463
2.50929
2.13486
1.7782
1.43607
1.10546
0.783555
0.467736
0.155516
-0.845468
2.3091
3.2886
3.44705
3.2935
3.01997
2.70194
2.37035
2.03811
1.71037
1.38871
1.07309
0.762606
0.45598
0.151727
0.259405
1.7603
2.60689
2.91128
2.90859
2.74782
2.50861
2.23181
1.9382
1.63826
1.33713
1.03711
0.73895
0.442557
0.147377
0.682227
1.6658
2.30157
2.58864
2.63337
2.53005
2.34132
2.10491
1.84264
1.56694
1.28474
0.999801
0.714038
0.428276
0.142725
1.05757
1.81273
2.2383
2.43418
2.46086
2.37152
2.20711
1.99591
1.75637
1.50009
1.2342
0.963031
0.689099
0.413832
0.137995
2.06536
2.18842
2.33443
2.39715
2.36883
2.26506
2.10532
1.90656
1.68169
1.43986
1.1873
0.928143
0.665062
0.399768
0.133368
2.59213
2.54804
2.4883
2.42325
2.32912
2.1974
2.03056
1.8353
1.61875
1.38704
1.14494
0.895948
0.642537
0.386459
0.128967
3.48559
2.91843
2.64575
2.46947
2.31542
2.15405
1.9755
1.77877
1.56628
1.3414
1.10734
0.866789
0.621843
0.374117
0.124867
3.68692
3.08419
2.73616
2.50018
2.30675
2.12255
1.93302
1.73314
1.52238
1.3021
1.07422
0.840653
0.603059
0.362823
0.121101
3.50045
3.07296
2.74869
2.50127
2.29159
2.09469
1.89769
1.69502
1.48505
1.26803
1.04502
0.817288
0.58609
0.35255
0.117663
3.37174
2.98997
2.70778
2.47608
2.26749
2.06686
1.86625
1.66194
1.45258
1.23809
1.01906
0.796309
0.570733
0.343201
0.114526
3.09032
2.83774
2.63174