/*--------------------------------*- C++ -*----------------------------------*\
| =========                 |                                                 |
| \\      /  F ield         | OpenFOAM: The Open Source CFD Toolbox           |
|  \\    /   O peration     | Version:  5.x                                   |
|   \\  /    A nd           | Web:      www.OpenFOAM.org                      |
|    \\/     M anipulation  |                                                 |
\*---------------------------------------------------------------------------*/
FoamFile
{
    version     2.0;
    format      ascii;
    class       volScalarField;
    location    "2.2";
    object      gradTx;
}
// * * * * * * * * * * * * * * * * * * * * * * * * * * * * * * * * * * * * * //

dimensions      [0 -1 0 1 0 0 0];

internalField   nonuniform List<scalar> 
6300
(
-49.2718
-49.2394
-49.1745
-49.0769
-48.9463
-48.7825
-48.5853
-48.3547
-48.091
-47.7948
-47.4673
-47.11
-46.7247
-46.3137
-45.8791
-49.3039
-49.2717
-49.207
-49.1096
-48.9793
-48.8156
-48.6184
-48.3875
-48.1232
-47.826
-47.4969
-47.1376
-46.7502
-46.3371
-45.9006
-49.368
-49.336
-49.2717
-49.175
-49.0452
-48.882
-48.6849
-48.4536
-48.188
-47.8886
-47.5565
-47.1932
-46.8013
-46.3835
-45.9431
-49.4638
-49.4322
-49.3688
-49.273
-49.1443
-48.982
-48.7853
-48.5535
-48.2863
-47.9838
-47.6469
-47.2773
-46.8779
-46.4524
-46.0051
-49.5909
-49.56
-49.4977
-49.4037
-49.2768
-49.1162
-48.9205
-48.6887
-48.4197
-48.1132
-47.7697
-47.391
-46.9804
-46.5429
-46.0847
-49.7487
-49.7187
-49.6583
-49.5667
-49.4428
-49.285
-49.0916
-48.8606
-48.5903
-48.2793
-47.9275
-47.5363
-47.1096
-46.654
-46.1784
-49.9361
-49.9075
-49.8497
-49.7619
-49.6424
-49.4892
-49.3
-49.0716
-48.8013
-48.4861
-48.1245
-47.717
-47.2675
-46.7848
-46.282
-50.1518
-50.1251
-50.0709
-49.9883
-49.8752
-49.7293
-49.547
-49.3244
-49.0567
-48.739
-48.3671
-47.9393
-47.4586
-46.9355
-46.3893
-50.394
-50.3697
-50.3203
-50.2447
-50.1407
-50.0053
-49.8342
-49.622
-49.3619
-49.0458
-48.6653
-48.2142
-47.6918
-47.109
-46.4932
-50.6602
-50.6389
-50.5957
-50.5293
-50.4373
-50.3166
-50.1621
-49.9673
-49.7228
-49.4166
-49.034
-48.5602
-47.9853
-47.3154
-46.5865
-50.9472
-50.9297
-50.894
-50.8389
-50.7624
-50.6612
-50.5302
-50.362
-50.1452
-49.8634
-49.4937
-49.007
-48.3735
-47.5804
-46.6664
-51.2515
-51.2382
-51.2112
-51.1696
-51.1118
-51.0351
-50.9352
-50.8048
-50.6322
-50.3979
-50.0703
-49.6003
-48.921
-47.9661
-46.7436
-51.5687
-51.5601
-51.5427
-51.5162
-51.4798
-51.432
-51.3703
-51.2896
-51.1807
-51.0255
-50.7887
-50.4027
-49.7436
-48.619
-46.8703
-51.894
-51.8903
-51.883
-51.8724
-51.8588
-51.8426
-51.8239
-51.8024
-51.7752
-51.7342
-51.6561
-51.4778
-51.0312
-49.8956
-47.2485
-52.2226
-52.2237
-52.2262
-52.2311
-52.2399
-52.2551
-52.2802
-52.3204
-52.3832
-52.4796
-52.6232
-52.8208
-53.0073
-52.6836
-48.919
-45.4625
-45.068
-44.6596
-44.2372
-43.8003
-43.348
-42.8795
-42.3937
-41.8901
-41.3686
-40.8296
-40.2742
-39.7042
-39.1217
-38.5294
-37.9303
-37.3272
-36.7235
-36.1222
-35.5266
-34.9398
-34.3649
-33.8049
-33.2625
-32.7402
-32.2402
-31.7643
-31.3139
-30.8902
-30.4939
-30.1254
-29.7848
-29.472
-29.1866
-28.9281
-28.6957
-28.4889
-28.3067
-28.1486
-28.0137
-27.9014
-27.8109
-27.7417
-27.6933
-27.6654
-27.6579
-27.6711
-27.7053
-27.7612
-27.8394
-27.9407
-28.0658
-28.2152
-28.3892
-28.5881
-28.8116
-29.0594
-29.3308
-29.6249
-29.9407
-30.2769
-30.6322
-31.0052
-31.3946
-31.7989
-32.2169
-32.6472
-33.0887
-33.54
-33.9999
-34.4672
-34.9407
-35.4194
-35.9024
-36.3888
-36.8777
-37.3684
-37.8601
-38.352
-38.8435
-39.3337
-39.822
-40.3078
-40.7905
-41.2692
-41.7429
-42.2103
-42.6701
-43.1202
-43.5587
-45.4828
-45.0879
-44.6797
-44.258
-43.8223
-43.3715
-42.9042
-42.4193
-41.9159
-41.3937
-40.8532
-40.2954
-39.7222
-39.1359
-38.5395
-37.936
-37.3284
-36.7201
-36.1143
-35.5141
-34.9229
-34.3438
-33.7799
-33.2339
-32.7085
-32.2059
-31.7279
-31.2759
-30.8511
-30.4542
-30.0856
-29.7453
-29.433
-29.1484
-28.8909
-28.6596
-28.4538
-28.2727
-28.1157
-27.9818
-27.8705
-27.7809
-27.7123
-27.6643
-27.6365
-27.6288
-27.6413
-27.6747
-27.7295
-27.8066
-27.907
-28.0313
-28.1801
-28.354
-28.553
-28.7771
-29.0257
-29.2984
-29.5941
-29.9116
-30.2498
-30.607
-30.982
-31.3732
-31.7794
-32.1992
-32.6314
-33.0747
-33.5278
-33.9894
-34.4583
-34.9332
-35.4133
-35.8975
-36.385
-36.875
-37.3668
-37.8596
-38.3526
-38.845
-39.3361
-39.8253
-40.3121
-40.7959
-41.2759
-41.7514
-42.2211
-42.6834
-43.1365
-43.5781
-45.5226
-45.1267
-44.7189
-44.299
-43.8661
-43.4185
-42.9542
-42.4715
-41.9688
-41.4454
-40.9017
-40.3388
-39.7589
-39.165
-38.5601
-37.9476
-37.3309
-36.7134
-36.0983
-35.489
-34.8888
-34.3011
-33.7292
-33.176
-32.6444
-32.1365
-31.6543
-31.1992
-30.7723
-30.3743
-30.0054
-29.6657
-29.3547
-29.0719
-28.8163
-28.5871
-28.3835
-28.2047
-28.0498
-27.9181
-27.8087
-27.721
-27.6539
-27.6068
-27.5792
-27.5709
-27.5822
-27.6136
-27.6662
-27.741
-27.8392
-27.9618
-28.1096
-28.283
-28.4824
-28.7075
-28.958
-29.2333
-29.5321
-29.8533
-30.1954
-30.5566
-30.9356
-31.3306
-31.7405
-32.164
-32.5998
-33.0467
-33.5033
-33.9684
-34.4405
-34.9185
-35.4012
-35.8878
-36.3775
-36.8697
-37.3637
-37.8586
-38.3537
-38.8481
-39.341
-39.8319
-40.3204
-40.8062
-41.2889
-41.7678
-42.2419
-42.7096
-43.1688
-43.6169
-45.5801
-45.1824
-44.7754
-44.3587
-43.9308
-43.4893
-43.0309
-42.5524
-42.0515
-41.5265
-40.9777
-40.4067
-39.8162
-39.2099
-38.5916
-37.9654
-37.3349
-36.7034
-36.0743
-35.451
-34.837
-34.236
-33.6517
-33.0875
-32.5463
-32.0305
-31.5421
-31.0824
-30.6524
-30.2528
-29.8838
-29.5452
-29.2364
-28.9565
-28.7042
-28.4785
-28.2782
-28.1027
-27.951
-27.8226
-27.7166
-27.6318
-27.5673
-27.5219
-27.4947
-27.4855
-27.4945
-27.5227
-27.5714
-27.6423
-27.7369
-27.8566
-28.0025
-28.1753
-28.375
-28.6018
-28.8552
-29.1345
-29.4384
-29.7654
-30.1136
-30.4812
-30.8662
-31.267
-31.6824
-32.1112
-32.5523
-33.0047
-33.4669
-33.9374
-34.4145
-34.8969
-35.3835
-35.8734
-36.3663
-36.8617
-37.359
-37.8573
-38.3557
-38.853
-39.3484
-39.8415
-40.3321
-40.8205
-41.3068
-41.7908
-42.2716
-42.7475
-43.2163
-43.6749
-45.6522
-45.2515
-44.8457
-44.4343
-44.0153
-43.5843
-43.1363
-42.6658
-42.1686
-41.642
-41.0859
-40.5027
-39.8964
-39.272
-38.6348
-37.9897
-37.3403
-36.6901
-36.0422
-35.3998
-34.7667
-34.1473
-33.5457
-32.9662
-32.4119
-31.8856
-31.3889
-30.9231
-30.4892
-30.0877
-29.7189
-29.3823
-29.0771
-28.8017
-28.5544
-28.3336
-28.1379
-27.9667
-27.8194
-27.6955
-27.5942
-27.5142
-27.4538
-27.4111
-27.3849
-27.3743
-27.3798
-27.4028
-27.4453
-27.5098
-27.5989
-27.7143
-27.8574
-28.029
-28.2293
-28.4582
-28.7156
-29.0006
-29.3118
-29.6472
-30.0044
-30.3809
-30.7742
-31.1827
-31.6051
-32.0407
-32.489
-32.9488
-33.4187
-33.8968
-34.381
-34.8693
-35.3608
-35.8548
-36.3515
-36.8508
-37.3526
-37.8557
-38.3589
-38.8604
-39.359
-39.8543
-40.3468
-40.8375
-41.3277
-41.8179
-42.3077
-42.7953
-43.2779
-43.7517
-45.7338
-45.3279
-44.9236
-44.521
-44.1167
-43.7039
-43.274
-42.8178
-42.3279
-41.7998
-41.2333
-40.6321
-40.0025
-39.3526
-38.6898
-38.02
-37.3472
-36.6739
-36.0023
-35.3354
-34.6772
-34.033
-33.4084
-32.8087
-32.2378
-31.6982
-31.1915
-30.7184
-30.2797
-29.876
-29.5079
-29.1748
-28.8753
-28.607
-28.367
-28.1529
-27.963
-27.7969
-27.6547
-27.5365
-27.4418
-27.3689
-27.3151
-27.2774
-27.253
-27.2406
-27.2406
-27.2552
-27.2879
-27.3427
-27.4234
-27.5326
-27.6718
-27.8418
-28.0426
-28.2743
-28.5367
-28.8293
-29.1506
-29.498
-29.8679
-30.2566
-30.6608
-31.0785
-31.509
-31.9524
-32.409
-32.8784
-33.3589
-33.8476
-34.3413
-34.8374
-35.3344
-35.8324
-36.3327
-36.8364
-37.3439
-37.854
-38.3643
-38.8717
-39.3741
-39.871
-40.3636
-40.855
-41.3481
-41.8452
-42.3465
-42.85
-43.3518
-43.8468
-45.8171
-45.4018
-44.9991
-44.6102
-44.2301
-43.8481
-43.4494
-43.0184
-42.5421
-42.013
-41.4309
-40.8022
-40.1382
-39.4519
-38.7549
-38.0548
-37.3549
-36.6554
-35.956
-35.2586
-34.5677
-33.8906
-33.2356
-32.61
-32.0188
-31.4641
-30.9461
-30.4646
-30.02
-29.6136
-29.2468
-28.9194
-28.6291
-28.3719
-28.1428
-27.9377
-27.7545
-27.5933
-27.4559
-27.3441
-27.2585
-27.1966
-27.154
-27.1249
-27.1044
-27.0896
-27.0809
-27.0821
-27.0992
-27.139
-27.2073
-27.308
-27.4426
-27.6107
-27.812
-28.0464
-28.3147
-28.6171
-28.9523
-29.3167
-29.7047
-30.1102
-30.5283
-30.9563
-31.3944
-31.8451
-32.3108
-32.7923
-33.2874
-33.7913
-34.2984
-34.8041
-35.3064
-35.8068
-36.3089
-36.8165
-37.3314
-37.852
-38.3734
-38.8899
-39.3969
-39.8933
-40.3821
-40.8694
-41.3624
-41.866
-42.3816
-42.9065
-43.435
-43.9597
-45.8903
-45.4573
-45.0548
-44.6866
-44.3463
-44.0162
-43.6713
-43.2842
-42.8323
-42.3027
-41.6955
-41.0231
-40.3059
-39.5668
-38.8247
-38.0896
-37.3622
-36.6367
-35.9072
-35.1726
-34.4387
-33.7168
-33.0207
-32.3621
-31.7475
-31.1774
-30.6486
-30.158
-29.7057
-29.2948
-28.9294
-28.6109
-28.3359
-28.0968
-27.8845
-27.6916
-27.5148
-27.3559
-27.2205
-27.1148
-27.0414
-26.9972
-26.9739
-26.9608
-26.9481
-26.9302
-26.9076
-26.8867
-26.8784
-26.8945
-26.945
-27.0352
-27.1653
-27.3324
-27.5341
-27.7703
-28.044
-28.358
-28.7123
-29.1016
-29.5166
-29.9462
-30.3817
-30.8196
-31.2621
-31.7164
-32.1901
-32.6867
-33.2031
-33.7304
-34.2576
-34.7756
-35.2813
-35.7787
-36.2769
-36.7859
-37.3107
-37.8485
-38.3896
-38.9215
-39.4347
-39.9262
-40.4022
-40.8755
-41.3609
-41.8691
-42.4028
-42.9573
-43.5233
-44.0897
-45.9355
-45.4686
-45.061
-44.7229
-44.4475
-44.2059
-43.9538
-43.6434
-43.2343
-42.7041
-42.0542
-41.3085
-40.5054
-39.6863
-38.8842
-38.1136
-37.3669
-36.6241
-35.866
-35.0859
-34.2925
-33.5062
-32.7522
-32.0511
-31.4125
-30.8316
-30.2963
-29.7967
-29.332
-28.9109
-28.5449
-28.2402
-27.9913
-27.7835
-27.5988
-27.4228
-27.2497
-27.085
-26.9431
-26.8396
-26.7828
-26.7681
-26.7795
-26.7965
-26.7999
-26.7783
-26.7322
-26.6738
-26.6227
-26.601
-26.6261
-26.7055
-26.8352
-27.0049
-27.2067
-27.4408
-27.7155
-28.0413
-28.4222
-28.8501
-29.3076
-29.7738
-30.2322
-30.6763
-31.1131
-31.5601
-32.0365
-32.5527
-33.1033
-33.6699
-34.2299
-34.7649
-35.2683
-35.7492
-36.2293
-36.7323
-37.2712
-37.8402
-38.4185
-38.98
-39.5033
-39.9814
-40.4258
-40.8637
-41.3263
-41.8351
-42.3937
-42.991
-43.6107
-44.2359
-45.9262
-45.3946
-44.9667
-44.669
-44.5001
-44.4105
-44.3206
-44.1446
-43.8107
-43.2781
-42.5509
-41.6768
-40.7278
-39.7814
-38.8987
-38.1031
-37.3662
-36.6335
-35.8568
-35.0186
-34.1361
-33.2496
-32.4076
-31.6506
-30.9946
-30.4204
-29.893
-29.3855
-28.896
-28.4479
-28.0728
-27.7897
-27.5881
-27.4373
-27.3011
-27.1503
-26.9731
-26.782
-26.6108
-26.4975
-26.4643
-26.5017
-26.5779
-26.6523
-26.688
-26.6623
-26.5753
-26.4506
-26.3254
-26.2406
-26.2294
-26.304
-26.4479
-26.6316
-26.8332
-27.0531
-27.314
-27.6458
-28.0646
-28.5564
-29.0863
-29.613
-30.1034
-30.5438
-30.9496
-31.3615
-31.8259
-32.3695
-32.9803
-33.619
-34.2384
-34.7997
-35.2875
-35.7208
-36.1487
-36.627
-37.1881
-37.8182
-38.4717
-39.093
-39.6368
-40.0847
-40.4585
-40.816
-41.2246
-41.7292
-42.3282
-42.9923
-43.6896
-44.3975
-45.8238
-45.1708
-44.685
-44.4292
-44.4381
-44.6154
-44.8112
-44.873
-44.6735
-44.1322
-43.2592
-42.1529
-40.9468
-39.7848
-38.7879
-38.0084
-37.3596
-36.7064
-35.9366
-35.0152
-33.986
-32.9292
-31.9408
-31.105
-30.4593
-29.9422
-29.4615
-28.9487
-28.4011
-27.8801
-27.4685
-27.2224
-27.1123
-27.0707
-27.0248
-26.9166
-26.7169
-26.451
-26.1957
-26.0408
-26.0447
-26.1802
-26.3795
-26.5644
-26.6654
-26.6349
-26.4734
-26.2289
-25.9704
-25.775
-25.7098
-25.8034
-26.0036
-26.233
-26.4338
-26.6068
-26.8109
-27.1254
-27.6025
-28.2084
-28.8698
-29.505
-30.0471
-30.4614
-30.7775
-31.0876
-31.5013
-32.0899
-32.817
-33.5962
-34.3305
-34.9404
-35.385
-35.7001
-35.9956
-36.4024
-37.0055
-37.7622
-38.5709
-39.3175
-39.9083
-40.2942
-40.5143
-40.6942
-40.9843
-41.4871
-42.1682
-42.9455
-43.7528
-44.5707
-45.5673
-44.7059
-44.0718
-43.8079
-44.1336
-44.7931
-45.4948
-45.9776
-46.0283
-45.4639
-44.3036
-42.7727
-41.1024
-39.5505
-38.3642
-37.7256
-37.3597
-36.9474
-36.2347
-35.1676
-33.8756
-32.5108
-31.2546
-30.286
-29.7392
-29.4123
-29.0764
-28.5628
-27.8682
-27.1551
-26.6267
-26.4597
-26.5384
-26.7107
-26.8391
-26.815
-26.5569
-26.1052
-25.6367
-25.356
-25.4362
-25.7677
-26.2025
-26.5981
-26.8327
-26.797
-26.4919
-26.0279
-25.5254
-25.1225
-24.962
-25.1499
-25.5182
-25.876
-26.0751
-26.1163
-26.1492
-26.3713
-26.9553
-27.7812
-28.6914
-29.5314
-30.1752
-30.5208
-30.6145
-30.6648
-30.9249
-31.6111
-32.5791
-33.638
-34.6018
-35.3192
-35.6693
-35.7073
-35.6823
-35.895
-36.6015
-37.6314
-38.7591
-39.7659
-40.4745
-40.7419
-40.6277
-40.4133
-40.4374
-40.9876
-41.8692
-42.8548
-43.8001
-44.7336
-45.0241
-43.9136
-42.9257
-42.3378
-43.3486
-44.9103
-46.4936
-47.7046
-48.2687
-47.6538
-45.8816
-43.5932
-41.0876
-38.7899
-37.1518
-37.0506
-37.4266
-37.6211
-37.0434
-35.6442
-33.8703
-31.9362
-30.1546
-28.8596
-28.7031
-28.8954
-28.9475
-28.4378
-27.3625
-26.1645
-25.2647
-25.3436
-25.8301
-26.4145
-26.8736
-27.0511
-26.676
-25.7843
-24.8077
-24.152
-24.4663
-25.207
-26.0827
-26.8641
-27.3898
-27.3479
-26.7394
-25.8832
-24.9372
-24.1214
-23.7131
-24.2372
-25.0482
-25.7481
-25.9442
-25.6384
-25.2154
-25.0966
-25.9603
-27.2328
-28.6144
-29.8406
-30.733
-30.9432
-30.5144
-29.9399
-29.7354
-30.7264
-32.2102
-33.8171
-35.2278
-36.2271
-36.4027
-35.8053
-35.0267
-34.6763
-35.7315
-37.3597
-39.1209
-40.6437
-41.6757
-41.7389
-40.8848
-39.7887
-39.1324
-40.0105
-41.42
-42.8216
-43.8637
-44.7665
-43.6793
-42.9449
-41.2032
-38.5652
-41.77
-44.996
-48.0284
-50.3631
-52.207
-51.5103
-48.2029
-44.7266
-40.7734
-37.0797
-33.7265
-35.6885
-37.755
-39.4071
-39.0355
-36.6603
-34.0962
-31.1425
-28.3542
-25.7943
-27.1649
-28.581
-29.6282
-29.1278
-27.0337
-24.7452
-22.494
-23.6412
-24.9813
-26.2995
-27.314
-28.0838
-27.5395
-25.5861
-23.5175
-21.552
-22.8833
-24.4524
-26.0995
-27.499
-28.7651
-28.7152
-27.3446
-25.8686
-24.1621
-22.5345
-21.122
-22.912
-24.739
-26.346
-26.5369
-25.3298
-23.8439
-22.4077
-24.377
-26.5277
-28.7619
-30.631
-32.2734
-32.2864
-30.6243
-28.6827
-26.8244
-29.1324
-31.6642
-34.279
-36.4462
-38.3212
-38.2492
-36.1644
-33.7545
-31.4332
-34.0362
-36.8963
-39.8256
-42.228
-44.2715
-44.0566
-41.4897
-38.5304
-35.6174
-38.2676
-40.9815
-43.3055
-44.127
-44.0415
-38.6647
-43.4261
-40.7714
-26.3789
-40.161
-45.3602
-50.568
-53.7283
-59.8037
-59.1261
-50.7675
-46.5469
-40.0856
-34.8794
-22.6473
-34.1761
-38.6801
-44.1076
-43.913
-37.9488
-34.8833
-30.1107
-26.2253
-17.0693
-25.5617
-28.7981
-32.538
-32.113
-26.9853
-23.2727
-14.8298
-21.6616
-24.1645
-26.6224
-28.1076
-31.0095
-30.4329
-25.5544
-22.0795
-14.2051
-20.9584
-23.5862
-26.4735
-28.3269
-32.0362
-31.9852
-28.1021
-26.1868
-23.2738
-20.6384
-13.92
-21.534
-24.747
-28.984
-29.1431
-25.4231
-22.4015
-14.8151
-22.5329
-25.7029
-29.4356
-31.7482
-36.1605
-36.042
-31.137
-27.3057
-17.9143
-27.2163
-30.9991
-35.3853
-38.0853
-43.2192
-42.9941
-36.9913
-32.3548
-21.099
-31.9707
-36.3331
-41.2887
-44.3288
-50.1188
-49.761
-42.6592
-37.2051
-24.0911
-36.4324
-41.1038
-45.9526
-45.6963
-39.2305
-44.0241
-44.51
-44.9687
-45.3969
-45.7919
-46.1517
-46.4751
-46.7612
-47.0101
-47.2218
-47.397
-47.5362
-47.6399
-47.7088
-47.7431
-44.047
-44.5366
-44.9986
-45.4295
-45.8265
-46.1876
-46.5116
-46.7979
-47.0465
-47.2578
-47.4324
-47.5709
-47.6742
-47.7426
-47.7768
-44.0932
-44.5904
-45.0591
-45.4954
-45.8964
-46.26
-46.5852
-46.8716
-47.1196
-47.3298
-47.5031
-47.6404
-47.7425
-47.8102
-47.8439
-44.1628
-44.6722
-45.1514
-45.5961
-46.003
-46.3701
-46.6968
-46.9831
-47.2299
-47.4381
-47.6092
-47.7444
-47.8447
-47.911
-47.9441
-44.2566
-44.7835
-45.2777
-45.734
-46.1487
-46.5202
-46.8482
-47.1336
-47.3779
-47.583
-47.7506
-47.8825
-47.9801
-48.0446
-48.0766
-44.3756
-44.9268
-45.4414
-45.9128
-46.3371
-46.7131
-47.0415
-47.3245
-47.5646
-47.7646
-47.927
-48.0543
-48.1481
-48.2098
-48.2405
-44.5217
-45.1062
-45.6478
-46.1381
-46.5732
-46.9529
-47.2798
-47.5576
-47.7907
-47.983
-48.138
-48.2587
-48.3473
-48.4055
-48.4344
-44.698
-45.3281
-45.905
-46.4181
-46.8641
-47.2451
-47.5665
-47.835
-48.0569
-48.238
-48.3827
-48.4946
-48.5764
-48.6299
-48.6564
-44.9094
-45.6025
-46.2255
-46.7648
-47.2194
-47.5963
-47.9057
-48.1583
-48.3635
-48.5287
-48.6594
-48.7599
-48.8329
-48.8806
-48.9041
-45.1645
-45.9466
-46.629
-47.1954
-47.6518
-48.0143
-48.3011
-48.5287
-48.7096
-48.8532
-48.9658
-49.0518
-49.1141
-49.1547
-49.1747
-45.4761
-46.3895
-47.1478
-47.7355
-48.177
-48.5069
-48.7552
-48.9452
-49.0927
-49.2082
-49.2981
-49.3666
-49.4163
-49.4486
-49.4646
-45.8627
-46.9867
-47.8363
-48.4211
-48.8132
-49.0797
-49.2668
-49.4035
-49.5074
-49.5881
-49.6512
-49.6996
-49.735
-49.7582
-49.7697
-46.3532
-47.858
-48.7891
-49.2996
-49.5748
-49.7309
-49.8276
-49.8941
-49.9446
-49.9852
-50.0184
-50.045
-50.0651
-50.0786
-50.0854
-47.0524
-49.3026
-50.1609
-50.4124
-50.4552
-50.4405
-50.4174
-50.4002
-50.3912
-50.3891
-50.3915
-50.3961
-50.401
-50.405
-50.4072
-48.8025
-52.1383
-52.1387
-51.7333
-51.393
-51.1572
-51.0003
-50.8972
-50.8304
-50.788
-50.7618
-50.7461
-50.7372
-50.7324
-50.7304
-52.5226
-52.5275
-52.5381
-52.5558
-52.5831
-52.624
-52.6844
-52.7742
-52.9094
-53.1191
-53.4598
-54.0617
-55.2862
-58.393
-68.7631
-52.7914
-52.7995
-52.8165
-52.8442
-52.8855
-52.9454
-53.0312
-53.1548
-53.3359
-53.6089
-54.0387
-54.7571
-56.0507
-58.5389
-63.2031
-53.0544
-53.065
-53.0871
-53.1226
-53.1748
-53.2486
-53.3516
-53.4954
-53.6983
-53.9895
-54.4166
-55.0528
-55.9853
-57.1736
-57.7222
-53.3096
-53.3221
-53.3481
-53.3893
-53.4488
-53.5313
-53.6433
-53.7946
-53.9989
-54.2754
-54.6488
-55.1427
-55.7421
-56.2519
-55.7909
-53.5558
-53.5696
-53.5981
-53.6429
-53.7066
-53.7931
-53.9076
-54.0568
-54.2491
-54.4934
-54.797
-55.159
-55.5607
-56.0042
-56.9198
-53.7919
-53.8066
-53.8365
-53.8831
-53.9484
-54.0353
-54.1475
-54.2888
-54.4626
-54.6697
-54.9046
-55.1475
-55.3499
-55.4285
-55.3131
-54.0176
-54.0325
-54.0629
-54.1099
-54.1749
-54.2599
-54.367
-54.4979
-54.6524
-54.8262
-55.0066
-55.1636
-55.2245
-54.9871
-53.631
-54.2324
-54.2473
-54.2776
-54.3238
-54.3871
-54.4688
-54.5698
-54.6902
-54.8281
-54.9774
-55.1248
-55.2463
-55.3057
-55.3226
-55.9627
-54.4365
-54.4511
-54.4807
-54.5255
-54.5865
-54.6641
-54.7588
-54.8701
-54.9954
-55.1292
-55.2609
-55.3717
-55.4161
-55.225
-53.7931
-54.6301
-54.6442
-54.6727
-54.7158
-54.7739
-54.8473
-54.9362
-55.0398
-55.1562
-55.2817
-55.4115
-55.5429
-55.6893
-55.9888
-57.4432
-54.8133
-54.8269
-54.8541
-54.8952
-54.9503
-55.0197
-55.1031
-55.2003
-55.31
-55.4305
-55.561
-55.7033
-55.8556
-55.9505
-55.2996
-54.9867
-54.9997
-55.0256
-55.0645
-55.1166
-55.1819
-55.2604
-55.3518
-55.4556
-55.5716
-55.7021
-55.8565
-56.0612
-56.4297
-57.6523
-55.1507
-55.163
-55.1875
-55.2243
-55.2734
-55.3348
-55.4085
-55.4943
-55.592
-55.7019
-55.8267
-55.9744
-56.1523
-56.3157
-55.9168
-55.3057
-55.3173
-55.3405
-55.3752
-55.4214
-55.479
-55.548
-55.6282
-55.7192
-55.8209
-55.9354
-56.0709
-56.2528
-56.5917
-57.6788
-55.4522
-55.4631
-55.485
-55.5176
-55.561
-55.6151
-55.6796
-55.7542
-55.8382
-55.9303
-56.0293
-56.135
-56.2436
-56.3479
-56.4328
-55.5906
-55.6009
-55.6215
-55.6522
-55.693
-55.7437
-55.804
-55.8734
-55.9508
-56.0339
-56.1187
-56.1967
-56.2366
-56.1173
-55.2518
-55.7214
-55.7311
-55.7505
-55.7794
-55.8177
-55.8653
-55.9218
-55.9867
-56.0588
-56.1354
-56.2127
-56.2844
-56.3393
-56.4048
-56.9421
-55.8449
-55.8541
-55.8724
-55.8996
-55.9357
-55.9805
-56.0337
-56.0947
-56.1627
-56.2355
-56.3106
-56.3834
-56.434
-56.3645
-55.5452
-55.9616
-55.9703
-55.9875
-56.0132
-56.0473
-56.0896
-56.1398
-56.1976
-56.2624
-56.3331
-56.41
-56.4975
-56.6114
-56.8444
-57.8121
-56.0718
-56.0799
-56.0963
-56.1206
-56.1529
-56.1928
-56.2404
-56.2953
-56.3571
-56.4255
-56.5021
-56.593
-56.7052
-56.8139
-56.5311
-56.1757
-56.1835
-56.199
-56.2221
-56.2527
-56.2906
-56.3357
-56.3878
-56.4464
-56.5112
-56.5842
-56.6733
-56.8006
-57.055
-57.8824
-56.2737
-56.2811
-56.2959
-56.3179
-56.347
-56.3831
-56.426
-56.4753
-56.5304
-56.5904
-56.655
-56.7266
-56.8069
-56.8979
-56.9927
-56.3659
-56.373
-56.3872
-56.4083
-56.4362
-56.4707
-56.5116
-56.5585
-56.6103
-56.6652
-56.7209
-56.7736
-56.805
-56.7379
-56.1757
-56.4527
-56.4596
-56.4732
-56.4935
-56.5203
-56.5535
-56.5929
-56.6378
-56.687
-56.7384
-56.7889
-56.8349
-56.8708
-56.9214
-57.3107
-56.5342
-56.5408
-56.554
-56.5737
-56.5997
-56.6319
-56.67
-56.7136
-56.7615
-56.8113
-56.8599
-56.903
-56.9254
-56.8694
-56.3874
-56.6105
-56.617
-56.6298
-56.6489
-56.6743
-56.7058
-56.7432
-56.7862
-56.8336
-56.8839
-56.9347
-56.985
-57.0335
-57.113
-57.5532
-56.6818
-56.6881
-56.7006
-56.7194
-56.7443
-56.7753
-56.8123
-56.8551
-56.903
-56.9549
-57.0099
-57.0678
-57.1194
-57.1058
-56.6149
-56.7481
-56.7543
-56.7666
-56.7851
-56.8097
-56.8403
-56.8771
-56.92
-56.9686
-57.0227
-57.083
-57.1547
-57.2497
-57.4297
-58.0906
-56.8095
-56.8156
-56.8278
-56.8461
-56.8704
-56.9009
-56.9375
-56.9805
-57.0296
-57.085
-57.1482
-57.2248
-57.32
-57.4193
-57.285
-56.866
-56.8721
-56.8842
-56.9023
-56.9265
-56.9568
-56.9933
-57.0362
-57.0853
-57.1408
-57.2041
-57.2816
-57.3866
-57.5708
-58.095
-56.9178
-56.9238
-56.9358
-56.9539
-56.9779
-57.008
-57.0444
-57.087
-57.1357
-57.19
-57.2501
-57.3189
-57.3974
-57.4858
-57.5752
-56.9647
-56.9707
-56.9827
-57.0007
-57.0247
-57.0547
-57.0909
-57.1333
-57.1813
-57.2339
-57.2901
-57.349
-57.4003
-57.3997
-57.1251
-57.0069
-57.0129
-57.0248
-57.0428
-57.0668
-57.0968
-57.1329
-57.1751
-57.2226
-57.2742
-57.3282
-57.384
-57.4383
-57.5036
-57.7494
-57.0442
-57.0502
-57.0622
-57.0802
-57.1042
-57.1343
-57.1705
-57.2127
-57.2602
-57.3115
-57.365
-57.4196
-57.4679
-57.4818
-57.2946
-57.0767
-57.0828
-57.0948
-57.1129
-57.1371
-57.1673
-57.2038
-57.2462
-57.2941
-57.3461
-57.401
-57.4592
-57.5202
-57.5994
-57.8485
-57.1045
-57.1105
-57.1227
-57.1409
-57.1652
-57.1957
-57.2325
-57.2755
-57.3242
-57.3775
-57.4346
-57.4965
-57.559
-57.5986
-57.4523
-57.1273
-57.1334
-57.1457
-57.164
-57.1886
-57.2194
-57.2567
-57.3003
-57.35
-57.4049
-57.465
-57.5329
-57.6126
-57.7266
-58.0238
-57.1452
-57.1514
-57.1638
-57.1823
-57.2072
-57.2384
-57.2762
-57.3205
-57.3712
-57.4276
-57.4898
-57.5608
-57.6414
-57.7271
-57.7484
-57.1582
-57.1644
-57.177
-57.1957
-57.2209
-57.2525
-57.2908
-57.3358
-57.3874
-57.4449
-57.5086
-57.5814
-57.6658
-57.7719
-57.9582
-57.1662
-57.1725
-57.1852
-57.2042
-57.2296
-57.2617
-57.3005
-57.3461
-57.3984
-57.4567
-57.521
-57.5936
-57.6741
-57.7607
-57.8433
-57.1691
-57.1755
-57.1883
-57.2076
-57.2334
-57.2658
-57.3051
-57.3513
-57.4042
-57.4631
-57.5276
-57.5997
-57.6771
-57.752
-57.794
-57.1668
-57.1733
-57.1863
-57.2059
-57.232
-57.2649
-57.3046
-57.3514
-57.4049
-57.4642
-57.5291
-57.6016
-57.6809
-57.7657
-57.8565
-57.1594
-57.166
-57.1792
-57.199
-57.2255
-57.2588
-57.2991
-57.3464
-57.4003
-57.4601
-57.5253
-57.5983
-57.6798
-57.7749
-57.916
-57.1467
-57.1534
-57.1668
-57.1869
-57.2138
-57.2475
-57.2884
-57.3363
-57.3907
-57.4508
-57.5161
-57.5887
-57.6684
-57.7519
-57.7945
-57.1287
-57.1355
-57.1491
-57.1695
-57.1968
-57.2311
-57.2725
-57.3211
-57.3762
-57.4367
-57.5019
-57.5735
-57.6532
-57.757
-57.9982
-57.1053
-57.1122
-57.126
-57.1467
-57.1745
-57.2093
-57.2515
-57.3008
-57.3567
-57.4179
-57.4831
-57.5524
-57.6203
-57.6661
-57.5635
-57.0764
-57.0834
-57.0974
-57.1185
-57.1467
-57.1822
-57.2251
-57.2754
-57.3325
-57.3951
-57.4616
-57.5317
-57.6017
-57.6781
-57.8806
-57.0419
-57.049
-57.0633
-57.0847
-57.1134
-57.1496
-57.1934
-57.2448
-57.3035
-57.3681
-57.4375
-57.5106
-57.5777
-57.6019
-57.4123
-57.0018
-57.009
-57.0235
-57.0453
-57.0745
-57.1114
-57.156
-57.2087
-57.2692
-57.3366
-57.4107
-57.4932
-57.5824
-57.674
-57.7555
-56.9559
-56.9633
-56.978
-57.0001
-57.0298
-57.0673
-57.1129
-57.1668
-57.2289
-57.2991
-57.3781
-57.4707
-57.5844
-57.7526
-58.164
-56.9042
-56.9117
-56.9266
-56.9491
-56.9793
-57.0173
-57.0636
-57.1185
-57.182
-57.2541
-57.3361
-57.4331
-57.5474
-57.6621
-57.5824
-56.8467
-56.8542
-56.8694
-56.8921
-56.9227
-56.9613
-57.0082
-57.0637
-57.1279
-57.2008
-57.2837
-57.383
-57.5092
-57.706
-58.2386
-56.7832
-56.7908
-56.8061
-56.8291
-56.8601
-56.8991
-56.9465
-57.0024
-57.0668
-57.1391
-57.2201
-57.3137
-57.4208
-57.5165
-57.3257
-56.7136
-56.7213
-56.7368
-56.7601
-56.7913
-56.8307
-56.8785
-56.9347
-56.9989
-57.0701
-57.1476
-57.2345
-57.3393
-57.5256
-58.2368
-56.6379
-56.6457
-56.6614
-56.6849
-56.7164
-56.7562
-56.8044
-56.861
-56.9252
-56.9952
-57.0686
-57.1423
-57.2001
-57.1699
-56.5965
-56.5562
-56.564
-56.5798
-56.6035
-56.6353
-56.6755
-56.7242
-56.7814
-56.8463
-56.9167
-56.9894
-57.0606
-57.121
-57.1911
-57.621
-56.4682
-56.4761
-56.492
-56.5159
-56.548
-56.5885
-56.6379
-56.696
-56.7623
-56.8351
-56.9114
-56.9858
-57.034
-56.962
-56.3188
-56.374
-56.3819
-56.3979
-56.4219
-56.4542
-56.4952
-56.5451
-56.6043
-56.6728
-56.7497
-56.8346
-56.9288
-57.0293
-57.1291
-57.213
-56.2735
-56.2815
-56.2974
-56.3215
-56.354
-56.3952
-56.4456
-56.5058
-56.5762
-56.6572
-56.7513
-56.8671
-57.024
-57.307
-58.1744
-56.1668
-56.1747
-56.1907
-56.2148
-56.2472
-56.2884
-56.339
-56.3996
-56.471
-56.5544
-56.653
-56.7761
-56.93
-57.0787
-56.7874
-56.0538
-56.0617
-56.0776
-56.1015
-56.1338
-56.1748
-56.2251
-56.2855
-56.3565
-56.4394
-56.5379
-56.6633
-56.8386
-57.1556
-58.1668
-55.9347
-55.9425
-55.9582
-55.9819
-56.0139
-56.0544
-56.1041
-56.1633
-56.2325
-56.3121
-56.4041
-56.5152
-56.6477
-56.7501
-56.2638
-55.8093
-55.817
-55.8325
-55.8559
-55.8874
-55.9273
-55.976
-56.0337
-56.1002
-56.1747
-56.257
-56.3518
-56.4767
-56.7531
-58.0257
-55.6778
-55.6854
-55.7007
-55.7237
-55.7546
-55.7938
-55.8414
-55.8975
-55.9613
-56.0304
-56.1012
-56.167
-56.1993
-56.0638
-54.9073
-55.5403
-55.5478
-55.5627
-55.5853
-55.6157
-55.654
-55.7007
-55.7555
-55.8174
-55.8836
-55.9488
-56.0051
-56.0373
-56.0832
-56.768
-55.3969
-55.4042
-55.4188
-55.4409
-55.4706
-55.5082
-55.554
-55.608
-55.6694
-55.7359
-55.8027
-55.8594
-55.8646
-55.6584
-54.4615
-55.2477
-55.2548
-55.269
-55.2906
-55.3195
-55.3563
-55.4012
-55.4548
-55.5168
-55.5866
-55.6636
-55.7488
-55.8377
-55.9214
-55.9847
-55.0928
-55.0997
-55.1135
-55.1344
-55.1626
-55.1983
-55.2423
-55.2951
-55.3575
-55.4308
-55.519
-55.6352
-55.8132
-56.1981
-57.561
-54.9323
-54.939
-54.9524
-54.9726
-54.9998
-55.0344
-55.0769
-55.1282
-55.1896
-55.2632
-55.3549
-55.478
-55.6439
-55.7954
-55.2293
-54.7665
-54.7729
-54.7859
-54.8053
-54.8315
-54.8645
-54.9051
-54.9538
-55.0119
-55.0816
-55.169
-55.2908
-55.4834
-55.8906
-57.3772
-54.5954
-54.6016
-54.6141
-54.6328
-54.6578
-54.6892
-54.7272
-54.7724
-54.8251
-54.8862
-54.9593
-55.0537
-55.1727
-55.2359
-54.3845
-54.4192
-54.4253
-54.4373
-54.4553
-54.4792
-54.5088
-54.5442
-54.5852
-54.6312
-54.6811
-54.7349
-54.799
-54.8997
-55.216
-56.9917
-54.2381
-54.244
-54.2557
-54.2731
-54.296
-54.3241
-54.357
-54.3941
-54.4335
-54.4718
-54.5034
-54.5183
-54.4758
-54.1821
-52.3988
-54.0522
-54.058
-54.0695
-54.0865
-54.1087
-54.1356
-54.1667
-54.2008
-54.2353
-54.2656
-54.2836
-54.277
-54.2252
-54.1823
-55.019
-53.8615
-53.8673
-53.8787
-53.8956
-53.9176
-53.944
-53.9741
-54.0066
-54.0389
-54.0664
-54.0809
-54.0664
-53.9674
-53.5712
-51.8325
-53.666
-53.6719
-53.6836
-53.7007
-53.7228
-53.7494
-53.7795
-53.8121
-53.8448
-53.8747
-53.8984
-53.9141
-53.9148
-53.892
-53.8444
-53.4657
-53.4718
-53.4839
-53.5016
-53.5245
-53.5519
-53.5831
-53.6168
-53.6515
-53.6859
-53.7216
-53.7715
-53.8775
-54.2296
-55.8322
-53.2604
-53.2668
-53.2796
-53.2983
-53.3226
-53.3516
-53.3846
-53.4203
-53.4572
-53.4946
-53.535
-53.5896
-53.668
-53.6985
-52.8171
-53.0499
-53.0568
-53.0705
-53.0906
-53.1168
-53.1482
-53.1839
-53.2223
-53.2616
-53.2998
-53.3387
-53.3905
-53.4908
-53.8004
-55.3235
-52.8339
-52.8413
-52.8562
-52.8782
-52.9069
-52.9415
-52.981
-53.0234
-53.0654
-53.1031
-53.1334
-53.1572
-53.167
-53.0591
-51.8678
-52.6119
-52.6201
-52.6363
-52.6605
-52.6923
-52.7312
-52.7759
-52.824
-52.8711
-52.9102
-52.9326
-52.933
-52.9238
-53.07
-54.6225
-52.3837
-52.3925
-52.4102
-52.4368
-52.4723
-52.5165
-52.5682
-52.6249
-52.6813
-52.7274
-52.7471
-52.7152
-52.5715
-52.1038
-50.0928
-52.1486
-52.158
-52.1772
-52.2064
-52.2459
-52.2962
-52.3567
-52.4256
-52.4975
-52.5615
-52.5976
-52.5743
-52.4431
-52.209
-52.5465
-51.9062
-51.9162
-51.9366
-51.9681
-52.0117
-52.0684
-52.1391
-52.2235
-52.3181
-52.4134
-52.4895
-52.508
-52.3849
-51.9171
-50.3449
-51.6561
-51.6664
-51.6877
-51.7209
-51.7678
-51.8306
-51.9119
-52.0139
-52.1371
-52.2773
-52.4214
-52.5395
-52.5651
-52.3917
-51.9584
-51.3982
-51.4085
-51.4298
-51.4636
-51.5124
-51.5796
-51.6699
-51.7891
-51.9431
-52.137
-52.3714
-52.6348
-52.8823
-53.0464
-53.2795
-51.1325
-51.1422
-51.1625
-51.1954
-51.2437
-51.3123
-51.4078
-51.5395
-51.7204
-51.9672
-52.3013
-52.7406
-53.2565
-53.6529
-53.2897
-50.8593
-50.8679
-50.886
-50.9157
-50.9606
-51.026
-51.1201
-51.2554
-51.4507
-51.7355
-52.1582
-52.7929
-53.7125
-54.7866
-54.5371
-50.5796
-50.5863
-50.6008
-50.6251
-50.6627
-50.7193
-50.8036
-50.9291
-51.1176
-51.4068
-51.8678
-52.6469
-54.0602
-56.839
-62.5474
-50.2945
-50.2987
-50.3081
-50.3246
-50.3512
-50.3932
-50.4582
-50.5585
-50.7136
-50.9576
-51.3567
-52.06
-53.4586
-56.8566
-67.6021
-68.676
-57.7947
-54.3222
-52.8841
-52.1568
-51.7407
-51.484
-51.3188
-51.2103
-51.1385
-51.0911
-51.0602
-51.0407
-51.0292
-51.024
-63.9577
-57.7912
-54.8934
-53.4364
-52.635
-52.1593
-51.8593
-51.6622
-51.5298
-51.4398
-51.3786
-51.3373
-51.3104
-51.2942
-51.2866
-54.9822
-55.5172
-54.463
-53.5331
-52.8872
-52.4548
-52.1621
-51.9603
-51.8195
-51.7208
-51.6517
-51.604
-51.5721
-51.5526
-51.5433
-54.1907
-54.3461
-53.9451
-53.4323
-52.991
-52.6523
-52.4007
-52.2154
-52.0798
-51.9809
-51.9096
-51.8591
-51.8246
-51.8033
-51.793
-53.2992
-53.5609
-53.5038
-53.2817
-53.0234
-52.7881
-52.5921
-52.4356
-52.3141
-52.2217
-52.1527
-52.1025
-52.0676
-52.0456
-52.0349
-52.6082
-52.9967
-53.1761
-53.1558
-53.0398
-52.8956
-52.7549
-52.631
-52.5281
-52.4459
-52.3822
-52.3347
-52.3009
-52.2793
-52.2689
-51.2815
-52.577
-52.9859
-53.0962
-53.0756
-52.9996
-52.9051
-52.8112
-52.7273
-52.6568
-52.6002
-52.5567
-52.5252
-52.5048
-52.4948
-52.9802
-52.7724
-53.0021
-53.1271
-53.1498
-53.1152
-53.0537
-52.984
-52.917
-52.8578
-52.8087
-52.7699
-52.7412
-52.7224
-52.7131
-50.9148
-52.6635
-53.0899
-53.2288
-53.2638
-53.2484
-53.2068
-53.1544
-53.1009