/*--------------------------------*- C++ -*----------------------------------*\
| =========                 |                                                 |
| \\      /  F ield         | OpenFOAM: The Open Source CFD Toolbox           |
|  \\    /   O peration     | Version:  5.x                                   |
|   \\  /    A nd           | Web:      www.OpenFOAM.org                      |
|    \\/     M anipulation  |                                                 |
\*---------------------------------------------------------------------------*/
FoamFile
{
    version     2.0;
    format      ascii;
    class       volScalarField;
    location    "2.2";
    object      T;
}
// * * * * * * * * * * * * * * * * * * * * * * * * * * * * * * * * * * * * * //

dimensions      [0 0 0 1 0 0 0];

internalField   nonuniform List<scalar> 
6300
(
322.754
322.261
321.769
321.277
320.787
320.299
319.812
319.327
318.845
318.365
317.889
317.416
316.946
316.481
316.02
322.753
322.26
321.768
321.276
320.786
320.297
319.81
319.324
318.842
318.362
317.885
317.412
316.942
316.477
316.016
322.753
322.26
321.766
321.274
320.783
320.293
319.805
319.319
318.836
318.356
317.878
317.405
316.935
316.469
316.007
322.753
322.258
321.764
321.271
320.779
320.288
319.799
319.312
318.828
318.346
317.868
317.393
316.923
316.456
315.994
322.752
322.256
321.761
321.266
320.773
320.281
319.79
319.302
318.817
318.334
317.854
317.378
316.907
316.439
315.976
322.751
322.254
321.757
321.261
320.766
320.272
319.78
319.29
318.803
318.318
317.837
317.36
316.886
316.417
315.953
322.75
322.251
321.752
321.254
320.757
320.261
319.767
319.275
318.786
318.299
317.816
317.337
316.862
316.391
315.926
322.749
322.248
321.747
321.246
320.747
320.249
319.752
319.258
318.766
318.277
317.791
317.309
316.832
316.36
315.894
322.748
322.244
321.741
321.238
320.736
320.235
319.736
319.238
318.743
318.251
317.762
317.278
316.798
316.324
315.856
322.747
322.24
321.734
321.228
320.723
320.219
319.717
319.216
318.718
318.222
317.729
317.241
316.758
316.281
315.812
322.745
322.236
321.727
321.218
320.71
320.203
319.697
319.192
318.689
318.189
317.692
317.199
316.712
316.232
315.76
322.744
322.231
321.719
321.207
320.696
320.185
319.675
319.166
318.659
318.153
317.651
317.152
316.659
316.174
315.699
322.742
322.226
321.711
321.196
320.681
320.166
319.652
319.139
318.626
318.115
317.606
317.099
316.598
316.104
315.625
322.741
322.222
321.703
321.184
320.665
320.147
319.628
319.11
318.592
318.075
317.558
317.042
316.528
316.021
315.53
322.739
322.217
321.694
321.172
320.65
320.127
319.605
319.082
318.558
318.034
317.509
316.982
316.452
315.921
315.399
315.602
315.224
314.851
314.48
314.113
313.75
313.391
313.035
312.684
312.337
311.995
311.657
311.323
310.995
310.671
310.353
310.039
309.731
309.427
309.129
308.835
308.546
308.262
307.983
307.708
307.437
307.171
306.908
306.649
306.393
306.141
305.891
305.644
305.4
305.158
304.918
304.679
304.443
304.208
303.974
303.741
303.509
303.277
303.046
302.816
302.585
302.355
302.124
301.893
301.661
301.429
301.196
300.961
300.725
300.488
300.249
300.008
299.765
299.519
299.271
299.02
298.766
298.509
298.249
297.986
297.719
297.449
297.175
296.898
296.616
296.331
296.042
295.749
295.452
295.15
294.845
294.536
294.222
293.905
293.583
293.257
292.928
292.594
292.256
291.914
291.568
291.218
290.864
290.507
290.146
315.597
315.22
314.846
314.475
314.108
313.745
313.385
313.03
312.678
312.331
311.988
311.65
311.317
310.988
310.664
310.346
310.032
309.724
309.42
309.122
308.828
308.54
308.256
307.977
307.702
307.431
307.165
306.903
306.644
306.388
306.136
305.887
305.641
305.396
305.155
304.915
304.677
304.441
304.206
303.972
303.739
303.508
303.276
303.046
302.815
302.585
302.355
302.124
301.894
301.662
301.43
301.197
300.963
300.728
300.49
300.252
300.011
299.768
299.523
299.275
299.024
298.77
298.514
298.254
297.991
297.724
297.454
297.181
296.903
296.622
296.337
296.048
295.754
295.457
295.156
294.851
294.542
294.228
293.911
293.589
293.263
292.933
292.599
292.261
291.919
291.573
291.224
290.87
290.512
290.151
315.588
315.21
314.836
314.465
314.097
313.734
313.374
313.018
312.666
312.318
311.975
311.637
311.303
310.974
310.65
310.331
310.018
309.709
309.406
309.107
308.814
308.526
308.243
307.964
307.69
307.42
307.154
306.892
306.634
306.379
306.128
305.879
305.633
305.39
305.149
304.91
304.672
304.437
304.202
303.969
303.737
303.506
303.275
303.045
302.815
302.585
302.355
302.125
301.895
301.664
301.433
301.2
300.967
300.732
300.495
300.257
300.017
299.774
299.53
299.282
299.032
298.779
298.523
298.263
298.001
297.734
297.465
297.191
296.914
296.633
296.348
296.059
295.766
295.469
295.168
294.862
294.553
294.24
293.922
293.6
293.275
292.945
292.611
292.273
291.931
291.585
291.235
290.881
290.523
290.161
315.574
315.196
314.821
314.449
314.082
313.717
313.357
313
312.648
312.299
311.955
311.616
311.282
310.953
310.629
310.31
309.996
309.687
309.384
309.086
308.793
308.505
308.223
307.945
307.671
307.402
307.137
306.876
306.619
306.366
306.115
305.867
305.623
305.38
305.14
304.902
304.665
304.43
304.197
303.965
303.733
303.503
303.273
303.043
302.814
302.585
302.356
302.127
301.897
301.667
301.437
301.205
300.972
300.738
300.503
300.265
300.026
299.784
299.54
299.294
299.044
298.792
298.536
298.277
298.015
297.749
297.48
297.207
296.93
296.649
296.364
296.075
295.783
295.486
295.185
294.88
294.57
294.257
293.939
293.618
293.292
292.962
292.628
292.29
291.948
291.601
291.251
290.897
290.539
290.176
315.555
315.177
314.801
314.429
314.061
313.696
313.334
312.977
312.623
312.274
311.929
311.589
311.254
310.924
310.6
310.28
309.966
309.658
309.355
309.057
308.765
308.478
308.196
307.919
307.646
307.378
307.115
306.855
306.599
306.347
306.098
305.852
305.608
305.367
305.128
304.891
304.656
304.422
304.19
303.959
303.728
303.499
303.27
303.041
302.813
302.585
302.357
302.128
301.9
301.671
301.441
301.211
300.98
300.747
300.512
300.276
300.038
299.798
299.555
299.309
299.061
298.809
298.554
298.296
298.035
297.769
297.501
297.228
296.951
296.671
296.387
296.098
295.805
295.509
295.208
294.903
294.594
294.28
293.963
293.641
293.315
292.985
292.651
292.312
291.97
291.624
291.273
290.919
290.56
290.197
315.532
315.153
314.777
314.404
314.035
313.669
313.306
312.947
312.593
312.242
311.896
311.555
311.219
310.888
310.563
310.243
309.929
309.621
309.318
309.021
308.729
308.443
308.162
307.886
307.615
307.349
307.087
306.829
306.575
306.324
306.077
305.832
305.591
305.351
305.114
304.878
304.645
304.412
304.181
303.951
303.722
303.494
303.266
303.039
302.812
302.585
302.358
302.131
301.903
301.676
301.448
301.219
300.989
300.757
300.525
300.29
300.053
299.814
299.573
299.329
299.081
298.831
298.577
298.32
298.059
297.795
297.527
297.255
296.979
296.699
296.414
296.126
295.834
295.537
295.237
294.932
294.623
294.309
293.992
293.67
293.344
293.014
292.679
292.341
291.998
291.652
291.301
290.946
290.587
290.224
315.504
315.124
314.747
314.374
314.004
313.637
313.273
312.913
312.556
312.204
311.856
311.513
311.176
310.844
310.518
310.198
309.884
309.576
309.273
308.976
308.685
308.4
308.121
307.846
307.577
307.313
307.053
306.797
306.545
306.297
306.051
305.809
305.569
305.332
305.097
304.863
304.631
304.4
304.171
303.943
303.715
303.488
303.262
303.036
302.81
302.584
302.358
302.133
301.907
301.681
301.455
301.228
301
300.77
300.539
300.307
300.072
299.835
299.595
299.352
299.106
298.857
298.605
298.348
298.089
297.825
297.558
297.287
297.011
296.732
296.448
296.16
295.868
295.572
295.271
294.967
294.658
294.344
294.027
293.705
293.379
293.048
292.714
292.375
292.033
291.686
291.335
290.98
290.62
290.256
315.471
315.09
314.713
314.339
313.968
313.6
313.235
312.872
312.513
312.159
311.808
311.464
311.125
310.792
310.465
310.145
309.83
309.522
309.22
308.924
308.634
308.35
308.072
307.799
307.532
307.27
307.013
306.759
306.51
306.264
306.022
305.782
305.545
305.31
305.077
304.845
304.615
304.387
304.159
303.933
303.707
303.482
303.257
303.033
302.808
302.583
302.359
302.135
301.911
301.687
301.463
301.238
301.012
300.785
300.557
300.326
300.094
299.859
299.621
299.38
299.136
298.888
298.637
298.382
298.123
297.861
297.595
297.325
297.05
296.771
296.488
296.2
295.908
295.612
295.312
295.008
294.699
294.386
294.068
293.746
293.419
293.089
292.754
292.415
292.073
291.726
291.375
291.019
290.659
290.294
315.432
315.052
314.675
314.301
313.929
313.56
313.192
312.827
312.465
312.107
311.753
311.406
311.065
310.731
310.403
310.083
309.768
309.46
309.158
308.862
308.573
308.291
308.015
307.745
307.48
307.221
306.967
306.716
306.47
306.227
305.988
305.752
305.517
305.285
305.054
304.825
304.597
304.371
304.146
303.922
303.699
303.476
303.252
303.029
302.806
302.583
302.36
302.137
301.915
301.693
301.472
301.25
301.027
300.802
300.576
300.349
300.119
299.887
299.652
299.413
299.171
298.925
298.675
298.421
298.163
297.902
297.637
297.368
297.095
296.817
296.534
296.246
295.954
295.658
295.358
295.055
294.746
294.433
294.116
293.793
293.466
293.135
292.8
292.461
292.119
291.772
291.421
291.066
290.705
290.339
315.388
315.008
314.632
314.258
313.887
313.517
313.147
312.778
312.411
312.048
311.69
311.339
310.995
310.66
310.332
310.012
309.697
309.389
309.087
308.791
308.503
308.222
307.949
307.682
307.421
307.166
306.914
306.667
306.425
306.186
305.95
305.718
305.487
305.258
305.03
304.803
304.577
304.353
304.131
303.91
303.689
303.469
303.248
303.026
302.804
302.581
302.359
302.138
301.918
301.699
301.481
301.262
301.043
300.822
300.599
300.374
300.148
299.919
299.687
299.451
299.211
298.967
298.718
298.465
298.209
297.949
297.686
297.419
297.146
296.869
296.586
296.298
296.006
295.71
295.411
295.108
294.8
294.488
294.17
293.847
293.518
293.186
292.85
292.512
292.17
291.825
291.475
291.119
290.758
290.391
315.337
314.958
314.584
314.213
313.844
313.473
313.1
312.726
312.352
311.981
311.617
311.26
310.914
310.578
310.251
309.931
309.618
309.309
309.006
308.71
308.422
308.143
307.873
307.611
307.355
307.103
306.856
306.612
306.373
306.139
305.909
305.681
305.455
305.229
305.004
304.779
304.555
304.334
304.114
303.897
303.68
303.463
303.244
303.023
302.801
302.579
302.357
302.138
301.92
301.705
301.491
301.276
301.061
300.843
300.623
300.402
300.18
299.956
299.728
299.496
299.258
299.014
298.766
298.514
298.258
298.001
297.74
297.476
297.205
296.929
296.645
296.356
296.063
295.767
295.468
295.167
294.861
294.55
294.232
293.907
293.577
293.242
292.905
292.567
292.227
291.884
291.535
291.181
290.82
290.452
315.277
314.902
314.532
314.167
313.802
313.432
313.055
312.673
312.289
311.906
311.531
311.168
310.818
310.483
310.159
309.843
309.531
309.221
308.915
308.617
308.329
308.052
307.787
307.531
307.282
307.036
306.792
306.551
306.316
306.087
305.863
305.643
305.422
305.2
304.977
304.753
304.53
304.31
304.095
303.883
303.672
303.459
303.243
303.023
302.8
302.575
302.353
302.134
301.919
301.708
301.5
301.292
301.081
300.867
300.65
300.432
300.215
299.997
299.775
299.547
299.312
299.069
298.82
298.566
298.311
298.056
297.8
297.541
297.273
296.998
296.713
296.421
296.124
295.826
295.529
295.232
294.931
294.622
294.304
293.976
293.641
293.301
292.962
292.624
292.288
291.95
291.605
291.252
290.891
290.522
315.205
314.837
314.473
314.121
313.768
313.399
313.019
312.624
312.224
311.819
311.43
311.055
310.703
310.37
310.057
309.751
309.439
309.127
308.812
308.51
308.218
307.945
307.686
307.442
307.205
306.964
306.723
306.482
306.249
306.026
305.813
305.604
305.391
305.174
304.951
304.726
304.5
304.281
304.07
303.868
303.668
303.46
303.247
303.026
302.8
302.569
302.344
302.123
301.912
301.708
301.51
301.313
301.106
300.895
300.677
300.463
300.25
300.042
299.832
299.61
299.378
299.133
298.881
298.621
298.365
298.112
297.866
297.616
297.354
297.08
296.79
296.492
296.186
295.886
295.59
295.302
295.012
294.706
294.389
294.054
293.712
293.36
293.016
292.678
292.353
292.026
291.686
291.336
290.972
290.605
315.114
314.764
314.398
314.078
313.755
313.381
313.005
312.581
312.166
311.711
311.308
310.908
310.562
310.228
309.944
309.666
309.349
309.037
308.693
308.386
308.082
307.818
307.563
307.345
307.133
306.892
306.656
306.399
306.171
305.948
305.758
305.573
305.364
305.157
304.926
304.702
304.458
304.243
304.032
303.851
303.672
303.469
303.265
303.034
302.806
302.555
302.328
302.099
301.897
301.696
301.521
301.344
301.139
300.932
300.7
300.49
300.278
300.092
299.905
299.686
299.462
299.207
298.952
298.669
298.414
298.158
297.936
297.711
297.45
297.184
296.879
296.576
296.24
295.939
295.637
295.376
295.114
294.809
294.499
294.145
293.795
293.407
293.061
292.716
292.418
292.122
291.781
291.439
291.059
290.704
314.981
314.716
314.257
314.037
313.818
313.367
313.062
312.525
312.166
311.528
311.181
310.682
310.405
310.014
309.824
309.636
309.254
308.991
308.519
308.26
307.886
307.678
307.385
307.241
307.1
306.815
306.62
306.273
306.085
305.823
305.697
305.576
305.336
305.173
304.892
304.705
304.375
304.197
303.95
303.829
303.713
303.48
303.32
303.039
302.848
302.505
302.314
302.037
301.878
301.649
301.534
301.417
301.175
301.004
300.692
300.519
300.268
300.145
300.021
299.77
299.593
299.279
299.064
298.676
298.463
298.157
298.008
297.859
297.555
297.342
296.965
296.707
296.244
295.991
295.628
295.452
295.276
294.919
294.671
294.231
293.932
293.395
293.103
292.684
292.482
292.283
291.875
291.598
291.109
290.836
289.744
289.302
288.854
288.402
287.946
287.487
287.023
286.557
286.088
285.617
285.144
284.669
284.193
283.716
283.239
289.749
289.306
288.859
288.406
287.95
287.49
287.026
286.56
286.09
285.619
285.145
284.67
284.194
283.717
283.239
289.759
289.316
288.867
288.415
287.958
287.497
287.032
286.565
286.095
285.623
285.148
284.672
284.195
283.718
283.239
289.774
289.33
288.881
288.427
287.969
287.507
287.041
286.573
286.102
285.628
285.153
284.676
284.198
283.719
283.24
289.794
289.349
288.898
288.443
287.984
287.52
287.053
286.583
286.111
285.636
285.159
284.681
284.201
283.721
283.24
289.819
289.373
288.921
288.464
288.003
287.537
287.068
286.596
286.122
285.645
285.167
284.687
284.205
283.724
283.241
289.85
289.402
288.948
288.489
288.025
287.558
287.086
286.612
286.135
285.656
285.175
284.693
284.21
283.726
283.242
289.887
289.437
288.981
288.519
288.052
287.581
287.107
286.63
286.151
285.669
285.186
284.701
284.216
283.73
283.243
289.93
289.478
289.018
288.553
288.083
287.609
287.131
286.651
286.168
285.683
285.197
284.71
284.222
283.734
283.245
289.981
289.525
289.062
288.592
288.118
287.639
287.158
286.673
286.187
285.699
285.21
284.72
284.229
283.738
283.246
290.039
289.58
289.112
288.637
288.157
287.673
287.187
286.698
286.208
285.716
285.224
284.73
284.236
283.742
283.247
290.108
289.643
289.168
288.686
288.199
287.71
287.218
286.724
286.23
285.734
285.238
284.741
284.244
283.747
283.249
290.188
289.716
289.231
288.74
288.245
287.748
287.25
286.752
286.253
285.753
285.253
284.753
284.252
283.751
283.25
290.287
289.8
289.301
288.797
288.293
287.788
287.284
286.78
286.276
285.772
285.268
284.764
284.26
283.756
283.252
290.418
289.898
289.375
288.855
288.34
287.828
287.317
286.808
286.299
285.791
285.283
284.776
284.268
283.761
283.254
322.737
322.212
321.687
321.161
320.636
320.11
319.583
319.056
318.528
317.998
317.465
316.929
316.384
315.823
315.216
322.736
322.208
321.68
321.152
320.623
320.094
319.564
319.033
318.501
317.967
317.429
316.886
316.334
315.765
315.163
322.735
322.204
321.673
321.142
320.611
320.079
319.546
319.012
318.476
317.938
317.396
316.85
316.295
315.73
315.152
322.733
322.2
321.667
321.133
320.599
320.064
319.529
318.992
318.453
317.912
317.367
316.819
316.264
315.704
315.139
322.732
322.197
321.661
321.125
320.588
320.051
319.512
318.972
318.431
317.887
317.341
316.791
316.238
315.68
315.118
322.731
322.193
321.655
321.116
320.577
320.037
319.497
318.954
318.411
317.865
317.317
316.767
316.214
315.66
315.106
322.73
322.19
321.649
321.108
320.567
320.025
319.482
318.938
318.392
317.845
317.295
316.744
316.192
315.64
315.092
322.729
322.186
321.644
321.101
320.557
320.013
319.468
318.922
318.374
317.825
317.275
316.723
316.17
315.617
315.063
322.728
322.183
321.639
321.094
320.548
320.002
319.455
318.907
318.358
317.807
317.255
316.702
316.148
315.593
315.043
322.727
322.181
321.634
321.087
320.54
319.992
319.443
318.893
318.342
317.79
317.236
316.682
316.125
315.568
315.006
322.726
322.178
321.629
321.081
320.532
319.982
319.431
318.88
318.327
317.773
317.218
316.662
316.104
315.545
314.985
322.725
322.175
321.625
321.075
320.524
319.972
319.42
318.867
318.313
317.758
317.202
316.644
316.085
315.523
314.956
322.724
322.173
321.621
321.069
320.517
319.964
319.41
318.855
318.3
317.743
317.186
316.627
316.066
315.504
314.94
322.723
322.17
321.617
321.064
320.51
319.955
319.4
318.844
318.287
317.73
317.171
316.611
316.05
315.486
314.918
322.723
322.168
321.613
321.059
320.503
319.947
319.391
318.834
318.276
317.717
317.157
316.596
316.034
315.471
314.907
322.722
322.166
321.61
321.054
320.497
319.94
319.382
318.824
318.265
317.705
317.144
316.582
316.02
315.458
314.898
322.721
322.164
321.607
321.049
320.491
319.933
319.374
318.814
318.254
317.693
317.131
316.569
316.006
315.442
314.878
322.721
322.162
321.604
321.045
320.486
319.926
319.366
318.805
318.244
317.682
317.119
316.556
315.992
315.427
314.865
322.72
322.161
321.601
321.041
320.481
319.92
319.359
318.797
318.235
317.672
317.108
316.544
315.978
315.411
314.841
322.72
322.159
321.598
321.037
320.476
319.914
319.352
318.789
318.226
317.662
317.097
316.532
315.966
315.398
314.829
322.719
322.157
321.595
321.033
320.471
319.908
319.345
318.782
318.217
317.653
317.087
316.521
315.954
315.385
314.813
322.719
322.156
321.593
321.03
320.467
319.903
319.339
318.775
318.209
317.644
317.078
316.511
315.943
315.375
314.805
322.718
322.155
321.591
321.027
320.463
319.898
319.333
318.768
318.202
317.636
317.069
316.501
315.933
315.365
314.798
322.718
322.153
321.589
321.024
320.459
319.893
319.328
318.761
318.195
317.628
317.06
316.492
315.923
315.355
314.785
322.717
322.152
321.587
321.021
320.455
319.889
319.322
318.756
318.188
317.62
317.052
316.483
315.914
315.345
314.776
322.717
322.151
321.585
321.018
320.452
319.885
319.318
318.75
318.182
317.613
317.044
316.475
315.904
315.334
314.762
322.717
322.15
321.583
321.016
320.448
319.881
319.313
318.745
318.176
317.607
317.037
316.466
315.895
315.324
314.753
322.716
322.149
321.581
321.013
320.445
319.877
319.309
318.74
318.17
317.6
317.03
316.459
315.887
315.314
314.738
322.716
322.148
321.58
321.011
320.443
319.874
319.305
318.735
318.165
317.595
317.023
316.452
315.879
315.305
314.731
322.716
322.147
321.578
321.009
320.44
319.871
319.301
318.731
318.16
317.589
317.018
316.445
315.872
315.297
314.72
322.715
322.146
321.577
321.008
320.438
319.868
319.298
318.727
318.156
317.584
317.012
316.439
315.866
315.291
314.716
322.715
322.146
321.576
321.006
320.436
319.865
319.295
318.724
318.152
317.58
317.007
316.434
315.86
315.286
314.712
322.715
322.145
321.575
321.004
320.434
319.863
319.292
318.72
318.148
317.576
317.003
316.429
315.855
315.281
314.705
322.715
322.144
321.574
321.003
320.432
319.861
319.289
318.718
318.145
317.572
316.999
316.425
315.851
315.276
314.701
322.715
322.144
321.573
321.002
320.431
319.859
319.287
318.715
318.142
317.569
316.996
316.421
315.846
315.271
314.694
322.714
322.143
321.572
321.001
320.429
319.858
319.286
318.713
318.14
317.567
316.992
316.418
315.843
315.267
314.691
322.714
322.143
321.572
321
320.428
319.856
319.284
318.711
318.138
317.564
316.99
316.415
315.839
315.263
314.685
322.714
322.143
321.571
321
320.428
319.855
319.283
318.71
318.136
317.562
316.988
316.413
315.837
315.26
314.682
322.714
322.143
321.571
320.999
320.427
319.855
319.282
318.709
318.135
317.561
316.986
316.411
315.835
315.258
314.679
322.714
322.142
321.571
320.999
320.427
319.854
319.281
318.708
318.134
317.56
316.985
316.41
315.833
315.256
314.678
322.714
322.142
321.571
320.999
320.427
319.854
319.281
318.708
318.134
317.56
316.985
316.409
315.833
315.256
314.678
322.714
322.142
321.571
320.999
320.427
319.854
319.281
318.708
318.134
317.56
316.985
316.409
315.833
315.256
314.678
322.714
322.143
321.571
320.999
320.427
319.855
319.282
318.709
318.135
317.561
316.986
316.41
315.834
315.256
314.678
322.714
322.143
321.571
320.999
320.427
319.855
319.283
318.709
318.136
317.562
316.987
316.411
315.835
315.258
314.68
322.714
322.143
321.572
321
320.428
319.856
319.284
318.711
318.137
317.563
316.988
316.413
315.837
315.26
314.682
322.714
322.143
321.572
321.001
320.429
319.857
319.285
318.712
318.139
317.565
316.991
316.416
315.84
315.263
314.686
322.715
322.144
321.573
321.002
320.431
319.859
319.287
318.714
318.141
317.568
316.994
316.419
315.843
315.267
314.689
322.715
322.144
321.574
321.003
320.432
319.861
319.289
318.717
318.144
317.571
316.997
316.422
315.847
315.271
314.695
322.715
322.145
321.575
321.004
320.434
319.863
319.292
318.72
318.148
317.574
317.001
316.426
315.851
315.275
314.697
322.715
322.146
321.576
321.006
320.436
319.865
319.295
318.723
318.151
317.579
317.005
316.431
315.856
315.279
314.701
322.715
322.146
321.577
321.008
320.438
319.868
319.298
318.727
318.156
317.583
317.01
316.437
315.862
315.286
314.709
322.716
322.147
321.579
321.01
320.441
319.871
319.302
318.731
318.16
317.589
317.016
316.443
315.869
315.293
314.715
322.716
322.148
321.58
321.012
320.444
319.875
319.306
318.736
318.166
317.595
317.023
316.45
315.877
315.302
314.726
322.716
322.149
321.582
321.015
320.447
319.879
319.31
318.741
318.172
317.601
317.03
316.458
315.885
315.311
314.735
322.717
322.15
321.584
321.017
320.45
319.883
319.315
318.747
318.178
317.608
317.038
316.467
315.895
315.323
314.752
322.717
322.152
321.586
321.02
320.454
319.887
319.32
318.753
318.185
317.616
317.046
316.476
315.905
315.334
314.761
322.718
322.153
321.588
321.023
320.458
319.892
319.326
318.759
318.192
317.624
317.055
316.486
315.916
315.345
314.776
322.718
322.154
321.591
321.026
320.462
319.897
319.332
318.766
318.2
317.633
317.065
316.496
315.927
315.356
314.784
322.719
322.156
321.593
321.03
320.467
319.903
319.339
318.774
318.209
317.642
317.075
316.507
315.938
315.367
314.792
322.719
322.157
321.596
321.034
320.471
319.909
319.346
318.782
318.218
317.653
317.087
316.519
315.951
315.381
314.809
322.72
322.159
321.599
321.038
320.476
319.915
319.353
318.79
318.227
317.663
317.098
316.533
315.965
315.396
314.822
322.72
322.161
321.601
321.042
320.482
319.922
319.361
318.799
318.237
317.675
317.111
316.547
315.981
315.414
314.846
322.721
322.163
321.605
321.046
320.488
319.928
319.369
318.809
318.248
317.687
317.125
316.562
315.998
315.432
314.863
322.722
322.165
321.608
321.051
320.493
319.936
319.378
318.819
318.26
317.7
317.139
316.578
316.016
315.454
314.894
322.722
322.167
321.611
321.056
320.5
319.943
319.387
318.829
318.271
317.713
317.154
316.594
316.034
315.473
314.912
322.723
322.169
321.615
321.061
320.506
319.951
319.396
318.84
318.284
317.727
317.169
316.611
316.052
315.493
314.939
322.724
322.171
321.619
321.066
320.513
319.96
319.406
318.851
318.297
317.741
317.185
316.628
316.07
315.511
314.952
322.725
322.174
321.623
321.071
320.52
319.968
319.416
318.863
318.31
317.756
317.201
316.646
316.089
315.529
314.965
322.725
322.176
321.627
321.077
320.527
319.977
319.426
318.875
318.324
317.772
317.219
316.665
316.109
315.552
314.993
322.726
322.178
321.631
321.083
320.535
319.986
319.437
318.888
318.338
317.788
317.237
316.684
316.131
315.575
315.013
322.727
322.181
321.635
321.089
320.542
319.996
319.449
318.901
318.353
317.805
317.255
316.705
316.154
315.602
315.05
322.728
322.184
321.639
321.095
320.55
320.005
319.46
318.914
318.368
317.822
317.275
316.727
316.179
315.629
315.074
322.729
322.186
321.644
321.101
320.558
320.015
319.472
318.928
318.384
317.84
317.295
316.75
316.204
315.66
315.121
322.73
322.189
321.649
321.108
320.567
320.026
319.484
318.942
318.4
317.858
317.315
316.772
316.229
315.687
315.146
322.731
322.192
321.653
321.114
320.575
320.036
319.497
318.957
318.416
317.876
317.335
316.794
316.254
315.715
315.182
322.732
322.195
321.658
321.121
320.584
320.047
319.509
318.971
318.433
317.894
317.356
316.816
316.277
315.738
315.199
322.733
322.198
321.663
321.128
320.593
320.058
319.522
318.986
318.45
317.913
317.376
316.839
316.301
315.761
315.216
322.734
322.201
321.668
321.135
320.602
320.069
319.535
319.001
318.467
317.932
317.397
316.862
316.325
315.788
315.251
322.735
322.204
321.674
321.143
320.612
320.08
319.549
319.017
318.484
317.952
317.418
316.885
316.351
315.815
315.275
322.736
322.207
321.679
321.15
320.621
320.092
319.563
319.033
318.502
317.971
317.44
316.909
316.377
315.845
315.316
322.737
322.211
321.685
321.158
320.631
320.104
319.577
319.049
318.52
317.991
317.462
316.933
316.403
315.874
315.342
322.738
322.214
321.69
321.166
320.642
320.117
319.591
319.065
318.539
318.012
317.484
316.957
316.43
315.905
315.388
322.739
322.218
321.696
321.174
320.652
320.129
319.606
319.082
318.558
318.032
317.506
316.98
316.455
315.931
315.411
322.74
322.221
321.702
321.183
320.663
320.142
319.621
319.1
318.577
318.053
317.529
317.003
316.479
315.956
315.44
322.742
322.225
321.708
321.191
320.674
320.156
319.637
319.118
318.597
318.075
317.552
317.027
316.501
315.975
315.453
322.743
322.229
321.715
321.2
320.686
320.17
319.654
319.137
318.618
318.098
317.575
317.05
316.523
315.993
315.462
322.744
322.233
321.722
321.21
320.698
320.185
319.671
319.157
318.641
318.122
317.601
317.076
316.546
316.011
315.473
322.746
322.237
321.728
321.219
320.71
320.2
319.69
319.178
318.664
318.149
317.63
317.106
316.574
316.031
315.478
322.747
322.241
321.735
321.229
320.723
320.216
319.708
319.2
318.69
318.178
317.662
317.14
316.609
316.059
315.472
322.749
322.246
321.743
321.239
320.736
320.232
319.728
319.223
318.717
318.209
317.698
317.182
316.657
316.113
315.52
290.594
289.991
289.439
288.905
288.381
287.862
287.346
286.832
286.32
285.808
285.297
284.786
284.276
283.765
283.255
290.639
290.041
289.483
288.944
288.414
287.891
287.371
286.854
286.338
285.823
285.309
284.796
284.282
283.769
283.256
290.625
290.064
289.514
288.975
288.444
287.917
287.394
286.874
286.355
285.838
285.321
284.805
284.289
283.773
283.258
290.625
290.08
289.538
289.001
288.469
287.941
287.416
286.893
286.372
285.852
285.332
284.813
284.295
283.777
283.259
290.629
290.094
289.558
289.024
288.492
287.963
287.436
286.911
286.388
285.865
285.343
284.822
284.301
283.781
283.26
290.636
290.108
289.576
289.044
288.513
287.983
287.455
286.928
286.403
285.878
285.354
284.83
284.307
283.784
283.261
290.647
290.124
289.595
289.064
288.533
288.003
287.473
286.944
286.417
285.89
285.364
284.838
284.313
283.787
283.262
290.671
290.144
289.615
289.084
288.553
288.021
287.49
286.96
286.431
285.902
285.373
284.846
284.318
283.791
283.264
290.69
290.166
289.636
289.104
288.572
288.039
287.507
286.975
286.444
285.913
285.383
284.853
284.323
283.794
283.265
290.729
290.193
289.659
289.125
288.591
288.057
287.523
286.99
286.457
285.924
285.392
284.86
284.328
283.797
283.266
290.751
290.218
289.682
289.146
288.61
288.075
287.539
287.004
286.469
285.935
285.401
284.867
284.333
283.8
283.267
290.787
290.244
289.705
289.167
288.629
288.092
287.555
287.018
286.481
285.945
285.409
284.874
284.338
283.803
283.268
290.807
290.268
289.727
289.187
288.648
288.109
287.57
287.032
286.493
285.955
285.418
284.88
284.343
283.806
283.269
290.838
290.291
289.749
289.208
288.667
288.126
287.585
287.045
286.505
285.965
285.426
284.887
284.347
283.808
283.269
290.853
290.312
289.77
289.227
288.685
288.143
287.6
287.058
286.517
285.975
285.434
284.893
284.352
283.811
283.27
290.869
290.332
289.791
289.247
288.703
288.159
287.615
287.071
286.528
285.985
285.442
284.899
284.356
283.814
283.271
290.901
290.357
289.813
289.267
288.721
288.175
287.63
287.084
286.539
285.994
285.449
284.905
284.361
283.816
283.272
290.924
290.382
289.835
289.287
288.739
288.192
287.644
287.097
286.55
286.003
285.457
284.911
284.365
283.819
283.273
290.966
290.41
289.858
289.307
288.757
288.208
287.658
287.109
286.561
286.012
285.464
284.917
284.369
283.821
283.274
290.988
290.434
289.88
289.327
288.775
288.223
287.672
287.122
286.571
286.021
285.472
284.922
284.373
283.824
283.275
291.022
290.459
289.902
289.346
288.792
288.239
287.686
287.133
286.581
286.03
285.479
284.928
284.377
283.826
283.275
291.04
290.48
289.922
289.364
288.808
288.253
287.699
287.145
286.591
286.038
285.485
284.933
284.38
283.828
283.276
291.066
290.501
289.94
289.382
288.824
288.268
287.711
287.156
286.601
286.046
285.492
284.938
284.384
283.83
283.277
291.078
290.518
289.957
289.398
288.839
288.281
287.724
287.167
286.61
286.054
285.499
284.943
284.388
283.833
283.278
291.09
290.534
289.974
289.414
288.854
288.294
287.736
287.177
286.619
286.062
285.505
284.948
284.391
283.835
283.278
291.115
290.553
289.991
289.429
288.868
288.307
287.747
287.187
286.628
286.069
285.511
284.952
284.394
283.837
283.279
291.132
290.571
290.008
289.445
288.882
288.32
287.758
287.197
286.636
286.076
285.516
284.957
284.398
283.839
283.28
291.161
290.591
290.025
289.459
288.895
288.332
287.769
287.206
286.644
286.083
285.522
284.961
284.401
283.84
283.28
291.177
290.608
290.04
289.474
288.908
288.343
287.779
287.215
286.652
286.09
285.527
284.965
284.404
283.842
283.281
291.2
290.625
290.055
289.487
288.92
288.354
287.788
287.224
286.66
286.096
285.532
284.969
284.407
283.844
283.281
291.212
290.64
290.069
289.499
288.931
288.364
287.798
287.232
286.667
286.102
285.537
284.973
284.409
283.845
283.282
291.228
290.653
290.081
289.511
288.942
288.374
287.806
287.239
286.673
286.107
285.542
284.977
284.412
283.847
283.282
291.236
290.664
290.092
289.522
288.952
288.383
287.814
287.247
286.679
286.113
285.546
284.98
284.414
283.848
283.283
291.243
290.674
290.103
289.532
288.961
288.391
287.822
287.254
286.685
286.118
285.55
284.983
284.417
283.85
283.283
291.258
290.685
290.113
289.541
288.97
288.399
287.829
287.26
286.691
286.123
285.554
284.986
284.419
283.851
283.284
291.267
290.696
290.123
289.55
288.978
288.407
287.836
287.266
286.696
286.127
285.558
284.989
284.421
283.852
283.284
291.284