/*--------------------------------*- C++ -*----------------------------------*\
| =========                 |                                                 |
| \\      /  F ield         | OpenFOAM: The Open Source CFD Toolbox           |
|  \\    /   O peration     | Version:  5.x                                   |
|   \\  /    A nd           | Web:      www.OpenFOAM.org                      |
|    \\/     M anipulation  |                                                 |
\*---------------------------------------------------------------------------*/
FoamFile
{
    version     2.0;
    format      ascii;
    class       volScalarField;
    location    "1.8";
    object      gradTx;
}
// * * * * * * * * * * * * * * * * * * * * * * * * * * * * * * * * * * * * * //

dimensions      [0 -1 0 1 0 0 0];

internalField   nonuniform List<scalar> 
6300
(
-50.8201
-50.7818
-50.705
-50.5895
-50.435
-50.2411
-50.0076
-49.7345
-49.422
-49.0707
-48.6817
-48.2566
-47.7975
-47.3069
-46.7871
-50.858
-50.8198
-50.7432
-50.6281
-50.4738
-50.2802
-50.0468
-49.7735
-49.4603
-49.1079
-48.7173
-48.2902
-47.8288
-47.3356
-46.8136
-50.9335
-50.8956
-50.8196
-50.7051
-50.5517
-50.3586
-50.1255
-49.8518
-49.5375
-49.1829
-48.7891
-48.3577
-47.8913
-47.393
-46.8662
-51.0465
-51.0091
-50.934
-50.8207
-50.6686
-50.4767
-50.2442
-49.9703
-49.6545
-49.2968
-48.898
-48.4599
-47.9854
-47.4785
-46.9437
-51.1964
-51.1597
-51.0861
-50.9747
-50.8247
-50.6349
-50.4039
-50.1302
-49.8129
-49.4513
-49.0458
-48.598
-48.1115
-47.5914
-47.044
-51.3824
-51.3468
-51.2753
-51.1669
-51.0203
-50.8339
-50.6056
-50.3334
-50.0151
-49.6492
-49.2353
-48.7746
-48.271
-47.7311
-47.1644
-51.6034
-51.5694
-51.5009
-51.3967
-51.2552
-51.0741
-50.8509
-50.5821
-50.2645
-49.8948
-49.4712
-48.9937
-48.4662
-47.8973
-47.3006
-51.858
-51.826
-51.7616
-51.6632
-51.529
-51.3562
-51.1411
-50.8792
-50.5653
-50.194
-49.7605
-49.2625
-48.7025
-48.0909
-47.4474
-52.1439
-52.1147
-52.0556
-51.9651
-51.841
-51.68
-51.4776
-51.2278
-50.9232
-50.5549
-50.1139
-49.5928
-48.9901
-48.3161
-47.5984
-52.4585
-52.4327
-52.3804
-52.3001
-52.1894
-52.0447
-51.861
-51.6307
-51.3442
-50.9882
-50.5471
-50.0044
-49.3486
-48.5845
-47.748
-52.7984
-52.7766
-52.7326
-52.6648
-52.5712
-52.4481
-52.2902
-52.0896
-51.8341
-51.5062
-51.0815
-50.5286
-49.815
-48.925
-47.8955
-53.1594
-53.1423
-53.1079
-53.0549
-52.9818
-52.8857
-52.7618
-52.6027
-52.3958
-52.1206
-51.7435
-51.213
-50.4573
-49.4044
-48.0565
-53.5367
-53.5249
-53.501
-53.4646
-53.4149
-53.3504
-53.2682
-53.1632
-53.0255
-52.8362
-52.5587
-52.122
-51.3963
-50.1783
-48.2928
-53.9254
-53.9189
-53.906
-53.887
-53.8623
-53.8322
-53.7968
-53.7558
-53.7062
-53.6397
-53.5324
-53.3192
-52.8268
-51.6193
-48.8322
-54.3198
-54.3186
-54.3165
-54.3145
-54.3144
-54.3186
-54.3308
-54.3563
-54.4034
-54.4834
-54.6112
-54.795
-54.9717
-54.6392
-50.8044
-46.2879
-45.8146
-45.3244
-44.8174
-44.2934
-43.7519
-43.1921
-42.6134
-42.0156
-41.3989
-40.7638
-40.1118
-39.4449
-38.7655
-38.0766
-37.3811
-36.6825
-35.984
-35.289
-34.6009
-33.9231
-33.2587
-32.611
-31.9827
-31.3765
-30.7948
-30.2395
-29.7123
-29.2145
-28.747
-28.3105
-27.9053
-27.5315
-27.189
-26.8775
-26.5965
-26.3458
-26.1246
-25.9326
-25.7692
-25.634
-25.5263
-25.4459
-25.3924
-25.3656
-25.3656
-25.3924
-25.4466
-25.5286
-25.6391
-25.7786
-25.9477
-26.1468
-26.3762
-26.6357
-26.9253
-27.2443
-27.5921
-27.9676
-28.3697
-28.7971
-29.2482
-29.7215
-30.2156
-30.7289
-31.2597
-31.8067
-32.3681
-32.9424
-33.528
-34.1233
-34.7268
-35.337
-35.9525
-36.5721
-37.1945
-37.8183
-38.4425
-39.0657
-39.6867
-40.3046
-40.9181
-41.5264
-42.1283
-42.7227
-43.3083
-43.8837
-44.4469
-44.9959
-45.5284
-46.3128
-45.8388
-45.3484
-44.8417
-44.3185
-43.7779
-43.219
-42.6409
-42.0429
-41.4251
-40.7881
-40.1334
-39.4629
-38.7794
-38.086
-37.3859
-36.6824
-35.9791
-35.2793
-34.5864
-33.904
-33.2352
-32.5833
-31.9512
-31.3417
-30.7572
-30.1995
-29.6705
-29.1713
-28.7029
-28.2659
-27.8606
-27.487
-27.1449
-26.834
-26.5538
-26.3037
-26.0833
-25.892
-25.7294
-25.5948
-25.4878
-25.4079
-25.3546
-25.3278
-25.3275
-25.3538
-25.4072
-25.4883
-25.5979
-25.7366
-25.9051
-26.1039
-26.3333
-26.5932
-26.8834
-27.2035
-27.5526
-27.9299
-28.3339
-28.7633
-29.2166
-29.6921
-30.1884
-30.7039
-31.2369
-31.7861
-32.3498
-32.9263
-33.5142
-34.1116
-34.7172
-35.3293
-35.9467
-36.5681
-37.1922
-37.8178
-38.4437
-39.0686
-39.6912
-40.3105
-40.9255
-41.5352
-42.1386
-42.7349
-43.3227
-43.9007
-44.4668
-45.0191
-45.555
-46.3621
-45.8862
-45.3954
-44.8897
-44.3684
-43.8302
-43.2735
-42.6968
-42.0987
-41.479
-40.838
-40.1775
-39.4997
-38.8078
-38.1052
-37.3955
-36.6824
-35.9693
-35.2597
-34.5573
-33.8654
-33.1876
-32.5273
-31.8876
-31.2714
-30.6811
-30.1188
-29.5861
-29.0842
-28.6141
-28.1762
-27.7708
-27.3977
-27.0566
-26.7469
-26.4681
-26.2195
-26.0007
-25.8109
-25.6498
-25.5167
-25.411
-25.3321
-25.2794
-25.2526
-25.2517
-25.2768
-25.3285
-25.4077
-25.5154
-25.6524
-25.8196
-26.0177
-26.247
-26.5075
-26.7991
-27.1214
-27.4733
-27.854
-28.262
-28.6956
-29.1533
-29.6333
-30.134
-30.6538
-31.1913
-31.7449
-32.3131
-32.8943
-33.4867
-34.0885
-34.6982
-35.3142
-35.9353
-36.5602
-37.1878
-37.8169
-38.4462
-39.0745
-39.7003
-40.3225
-40.9402
-41.5526
-42.159
-42.7588
-43.351
-43.9341
-44.5064
-45.0653
-45.6084
-46.4338
-45.955
-45.4636
-44.9598
-44.4423
-43.9089
-43.3568
-42.7832
-42.1857
-41.5632
-40.9162
-40.2464
-39.5569
-38.8516
-38.1347
-37.4103
-36.6824
-35.9546
-35.2303
-34.5131
-33.8068
-33.1152
-32.4419
-31.7905
-31.1641
-30.5652
-29.9959
-29.4578
-28.952
-28.4794
-28.0403
-27.6349
-27.2629
-26.9236
-26.6161
-26.3396
-26.0933
-25.8767
-25.6893
-25.5305
-25.3997
-25.2962
-25.2192
-25.1676
-25.141
-25.1391
-25.1622
-25.211
-25.2869
-25.3912
-25.5253
-25.6904
-25.8872
-26.1162
-26.3777
-26.6714
-26.9969
-27.3533
-27.7394
-28.1535
-28.5938
-29.0584
-29.5451
-30.0524
-30.5787
-31.1227
-31.683
-32.2582
-32.8464
-33.4457
-34.0543
-34.6702
-35.2919
-35.9183
-36.5484
-37.1812
-37.8156
-38.4502
-39.0837
-39.7143
-40.3407
-40.9622
-41.5782
-42.1886
-42.7933
-43.3917
-43.9827
-44.5644
-45.134
-45.6883
-46.525
-46.0415
-45.5495
-45.0493
-44.5388
-44.0144
-43.471
-42.9038
-42.3085
-41.6829
-41.0271
-40.3436
-39.6369
-38.9122
-38.175
-37.4304
-36.6825
-35.9349
-35.1908
-34.4537
-33.7275
-33.0166
-32.3253
-31.6578
-31.0175
-30.4072
-29.8287
-29.2834
-28.7725
-28.2967
-27.8565
-27.4517
-27.0816
-26.7453
-26.4412
-26.1681
-25.925
-25.7114
-25.527
-25.3714
-25.2442
-25.1442
-25.0702
-25.0206
-24.9945
-24.9912
-25.011
-25.0553
-25.1259
-25.2249
-25.3544
-25.516
-25.7108
-25.9395
-26.2021
-26.4986
-26.8285
-27.1911
-27.5849
-28.0079
-28.4577
-28.9318
-29.4278
-29.9438
-30.4785
-31.031
-31.6001
-32.1846
-32.7826
-33.3918
-34.0096
-34.6339
-35.2631
-35.8961
-36.5326
-37.1721
-37.8137
-38.456
-39.0967
-39.734
-40.3659
-40.9917
-41.6115
-42.2261
-42.8364
-43.4427
-44.0443
-44.6392
-45.224
-45.7947
-46.6308
-46.1399
-45.6472
-45.1533
-44.6553
-44.1468
-43.6196
-43.0647
-42.4748
-41.8459
-41.1778
-40.4745
-39.7428
-38.9907
-38.2262
-37.4553
-36.6824
-35.9103
-35.1414
-34.3787
-33.6265
-32.89
-32.1748
-31.4862
-30.8283
-30.2037
-29.6139
-29.06
-28.5429
-28.0634
-27.6221
-27.2188
-26.8525
-26.5211
-26.2222
-25.954
-25.7149
-25.5048
-25.3239
-25.1724
-25.05
-24.9554
-24.8866
-24.8407
-24.8158
-24.8106
-24.8255
-24.8625
-24.9246
-25.0153
-25.1378
-25.2944
-25.4865
-25.7144
-25.9783
-26.2782
-26.6138
-26.9845
-27.3888
-27.8242
-28.2872
-28.7742
-29.2821
-29.8087
-30.3532
-30.9155
-31.4953
-32.0919
-32.703
-33.3255
-33.9558
-34.5907
-35.2286
-35.869
-36.5126
-37.16
-37.8109
-38.4636
-39.1148
-39.7611
-40.3997
-41.0296
-41.652
-42.2694
-42.8847
-43.5
-44.1152
-44.7279
-45.3339
-45.9276
-46.7439
-46.2405
-45.7463
-45.2631
-44.7865
-44.3062
-43.8078
-43.2757
-42.6973
-42.0652
-41.3793
-40.6463
-39.8779
-39.0874
-38.2865
-37.4833
-36.6813
-35.8813
-35.0833
-34.289
-33.5031
-32.7329
-31.9864
-31.2709
-30.5915
-29.9503
-29.3479
-28.7842
-28.2596
-27.7756
-27.3335
-26.9334
-26.5736
-26.2505
-25.9599
-25.6983
-25.4639
-25.2569
-25.079
-24.932
-24.8164
-24.7305
-24.6704
-24.6315
-24.6093
-24.6016
-24.6088
-24.6341
-24.6827
-24.7606
-24.8727
-25.0225
-25.211
-25.4382
-25.7035
-26.0069
-26.349
-26.73
-27.1486
-27.6011
-28.0825
-28.587
-29.1098
-29.6484
-30.2028
-30.7749
-31.3667
-31.9784
-32.6073
-33.2482
-33.8953
-34.5435
-35.1906
-35.8374
-36.487
-37.1427
-37.8056
-38.4732
-39.1398
-39.799
-40.4457
-41.0782
-41.6993
-42.3152
-42.9328
-43.5571
-44.1891
-44.8259
-45.4611
-46.0866
-46.8526
-46.3275
-45.8295
-45.3633
-44.923
-44.4917
-44.0442
-43.5535
-42.997
-42.3619
-41.6485
-40.8693
-40.0451
-39.199
-38.3502
-37.5095
-36.6777
-35.8497
-35.0199
-34.1873
-33.3576
-32.542
-31.7536
-31.004
-30.2998
-29.6417
-29.0268
-28.4524
-27.9184
-27.428
-26.9849
-26.5906
-26.2424
-25.9336
-25.6564
-25.4042
-25.174
-24.9677
-24.7902
-24.647
-24.5407
-24.4689
-24.4246
-24.3987
-24.3827
-24.372
-24.3668
-24.3728
-24.3995
-24.4571
-24.5542
-24.6953
-24.8806
-25.1076
-25.3742
-25.6805
-26.0289
-26.4221
-26.8598
-27.337
-27.8451
-28.3738
-28.9151
-29.4655
-30.0272
-30.6064
-31.2099
-31.8404
-32.4943
-33.1624
-33.8334
-34.4981
-35.153
-35.8016
-36.4526
-37.1152
-37.7935
-38.4838
-39.1754
-39.8549
-40.5118
-41.1428
-41.7538
-42.3581
-42.9707
-43.6025
-44.2558
-44.9255
-45.6015
-46.2717
-46.9396
-46.3752
-45.8668
-45.4259
-45.0465
-44.7002
-44.3428
-43.9261
-43.4098
-42.7714
-42.0124
-41.157
-40.2437
-39.3145
-38.4026
-37.5229
-36.6688
-35.8209
-34.9608
-34.0817
-33.1922
-32.312
-31.4652
-30.6722
-29.9422
-29.2711
-28.6477
-28.0627
-27.515
-27.0127
-26.5664
-26.182
-25.8548
-25.5719
-25.3175
-25.0788
-24.8505
-24.6375
-24.4525
-24.3095
-24.2161
-24.1684
-24.153
-24.1521
-24.1493
-24.1349
-24.1091
-24.0825
-24.0723
-24.0973
-24.1728
-24.3051
-24.4907
-24.7208
-24.9883
-25.2939
-25.6449
-26.0506
-26.5145
-27.0291
-27.5783
-28.143
-28.7078
-29.2669
-29.8266
-30.4032
-31.0143
-31.669
-32.3611
-33.0726
-33.7806
-34.4669
-35.1246
-35.7625
-36.4016
-37.0648
-37.7641
-38.4926
-39.2282
-39.943
-40.6149
-41.2359
-41.8178
-42.3886
-42.9808
-43.6164
-44.2986
-45.0157
-45.7498
-46.483
-46.9791
-46.3423
-45.8064
-45.3997
-45.1223
-44.9247
-44.7268
-44.442
-43.9983
-43.3545
-42.5151
-41.5279
-40.4655
-39.4052
-38.4087
-37.4997
-36.6511
-35.8099
-34.9291
-33.9915
-33.0136
-32.0341
-31.0999
-30.25
-29.5
-28.8323
-28.2139
-27.6195
-27.0469
-26.5172
-26.0595
-25.6914
-25.4039
-25.1698
-24.9568
-24.7389
-24.5055
-24.2677
-24.0551
-23.9013
-23.8262
-23.8219
-23.8612
-23.909
-23.9335
-23.9149
-23.8534
-23.7694
-23.6949
-23.6656
-23.7101
-23.8389
-24.0375
-24.2804
-24.5484
-24.8423
-25.1826
-25.5959
-26.0967
-26.6719
-27.2896
-27.9123
-28.5092
-29.0677
-29.6022
-30.1507
-30.7564
-31.4438
-32.2004
-32.9878
-33.7593
-34.4768
-35.1247
-35.7216
-36.3159
-36.9624
-37.6925
-38.4911
-39.3106
-40.093
-40.7909
-41.3849
-41.8973
-42.3882
-42.9278
-43.5627
-44.2907
-45.0809
-45.8989
-46.7205
-46.9334
-46.1639
-45.5595
-45.1868
-45.0825
-45.1494
-45.2356
-45.1868
-44.8749
-44.2193
-43.2305
-42.0074
-40.6841
-39.4043
-38.2887
-37.3897
-36.6229
-35.8561
-34.9797
-33.9594
-32.8375
-31.6915
-30.6135
-29.6843
-28.9399
-28.3227
-27.746
-27.1455
-26.5176
-25.9185
-25.424
-25.0854
-24.8769
-24.7379
-24.6036
-24.4221
-24.1677
-23.8622
-23.5737
-23.3807
-23.3351
-23.4136
-23.5578
-23.7001
-23.7804
-23.7573
-23.6311
-23.4432
-23.2534
-23.1285
-23.1267
-23.2728
-23.5213
-23.8044
-24.0718
-24.3247
-24.6157
-25.016
-25.5722
-26.2539
-26.9944
-27.7192
-28.3664
-28.9035
-29.3581
-29.8162
-30.381
-31.1194
-31.9956
-32.9261
-33.816
-34.5872
-35.1984
-35.6846
-36.1549
-36.7394
-37.5224
-38.4595
-39.4461
-40.3643
-41.1165
-41.6508
-42.0076
-42.3172
-42.7371
-43.3744
-44.1927
-45.1054
-46.0422
-46.9819
-46.743
-45.7472
-44.9788
-44.5869
-44.7961
-45.3457
-45.9383
-46.3101
-46.2462
-45.564
-44.2831
-42.6312
-40.84
-39.1671
-37.8569
-37.0896
-36.595
-36.0603
-35.2376
-34.0742
-32.6963
-31.2512
-29.9134
-28.8529
-28.197
-27.7553
-27.3128
-26.7116
-25.9474
-25.1698
-24.5645
-24.2928
-24.2504
-24.3
-24.3191
-24.2111
-23.9039
-23.4334
-22.9552
-22.6489
-22.6659
-22.9116
-23.2579
-23.5815
-23.7769
-23.7492
-23.4986
-23.1206
-22.7194
-22.4148
-22.331
-22.5602
-22.9561
-23.3519
-23.617
-23.7528
-23.8921
-24.2122
-24.8679
-25.7519
-26.7226
-27.6384
-28.3827
-28.8588
-29.1093
-29.3286
-29.7562
-30.5968
-31.7132
-32.9229
-34.0442
-34.928
-35.4522
-35.6707
-35.8297
-36.2304
-37.1304
-38.3566
-39.6798
-40.8743
-41.7555
-42.1722
-42.1853
-42.0872
-42.2328
-42.9249
-43.9584
-45.0945
-46.1809
-47.2462
-46.2774
-45.0029
-43.856
-43.1214
-44.0199
-45.4801
-46.9591
-48.0608
-48.508
-47.7706
-45.8702
-43.4556
-40.8257
-38.4076
-36.6435
-36.3968
-36.6251
-36.6793
-35.9866
-34.4979
-32.6522
-30.6565
-28.8145
-27.4394
-27.1458
-27.1897
-27.1086
-26.5128
-25.3968
-24.1736
-23.2252
-23.1705
-23.4918
-23.9067
-24.2184
-24.2874
-23.8762
-23.016
-22.0901
-21.452
-21.6679
-22.2656
-22.9915
-23.6482
-24.0957
-24.0628
-23.55
-22.8323
-22.0467
-21.3837
-21.0853
-21.6083
-22.3915
-23.0881
-23.349
-23.1763
-22.9089
-22.9257
-23.8353
-25.1254
-26.5302
-27.8053
-28.7856
-29.1392
-28.9059
-28.5414
-28.5368
-29.6774
-31.2967
-33.0471
-34.6143
-35.7868
-36.1463
-35.7426
-35.1561
-35.0024
-36.2684
-38.1141
-40.0984
-41.8354
-43.0629
-43.2746
-42.5226
-41.5056
-40.9414
-41.9833
-43.5758
-45.1547
-46.349
-47.3907
-45.0201
-44.0746
-42.139
-39.3039
-42.434
-45.5871
-48.5228
-50.7538
-52.4756
-51.6518
-48.1977
-44.5899
-40.5063
-36.7065
-33.2453
-35.0201
-36.9062
-38.3739
-37.882
-35.436
-32.8247
-29.8407
-27.0438
-24.4687
-25.6091
-26.8043
-27.6463
-27.0634
-25.0014
-22.7822
-20.5995
-21.5073
-22.5993
-23.6629
-24.4677
-25.056
-24.4957
-22.6942
-20.8111
-19.0264
-20.1208
-21.436
-22.8255
-24.0171
-25.107
-25.0685
-23.8974
-22.6427
-21.1984
-19.8284
-18.6577
-20.2826
-21.9525
-23.4526
-23.7061
-22.737
-21.517
-20.3543
-22.2556
-24.3344
-26.5254
-28.3971
-30.0917
-30.2655
-28.8919
-27.2365
-25.6688
-28.0691
-30.6917
-33.4356
-35.7532
-37.8164
-37.9396
-36.0779
-33.8595
-31.73
-34.5716
-37.6717
-40.8731
-43.5298
-45.833
-45.7641
-43.2412
-40.2718
-37.3364
-40.2482
-43.2123
-45.7678
-46.7359
-46.7579
-40.0605
-44.5711
-41.7171
-26.8963
-40.8148
-46.0072
-51.1011
-54.1799
-60.1087
-59.3207
-50.7465
-46.4093
-39.7783
-34.5179
-22.3073
-33.4833
-37.7902
-42.8907
-42.5918
-36.6125
-33.534
-28.756
-24.9538
-16.1484
-23.9936
-26.9283
-30.2364
-29.7445
-24.8328
-21.3387
-13.524
-19.5793
-21.7485
-23.7924
-25.0297
-27.4793
-26.9033
-22.4907
-19.3913
-12.4556
-18.2567
-20.4999
-22.9456
-24.5335
-27.7443
-27.7061
-24.3661
-22.7268
-20.244
-17.987
-12.2048
-18.8929
-21.7586
-25.6127
-25.8247
-22.6598
-20.0433
-13.3712
-20.421
-23.3823
-26.981
-29.2445
-33.5887
-33.6203
-29.2844
-25.8058
-17.087
-26.1409
-29.9125
-34.4381
-37.2585
-42.6399
-42.5915
-36.9266
-32.435
-21.2993
-32.5024
-37.0832
-42.4319
-45.7329
-52.0186
-51.7868
-44.6024
-38.9884
-25.3112
-38.4373
-43.4367
-48.6664
-48.4848
-41.8415
-46.091
-46.6762
-47.2264
-47.7382
-48.2091
-48.6369
-49.0207
-49.3598
-49.6543
-49.9047
-50.1117
-50.276
-50.3985
-50.4798
-50.5203
-46.1214
-46.7105
-47.264
-47.7786
-48.2513
-48.6804
-49.0646
-49.4036
-49.6977
-49.9474
-50.1536
-50.3172
-50.439
-50.5198
-50.56
-46.1826
-46.7796
-47.3401
-47.8601
-48.3367
-48.7679
-49.1529
-49.4917
-49.7847
-50.0329
-50.2374
-50.3993
-50.5197
-50.5995
-50.6393
-46.275
-46.8847
-47.456
-47.9844
-48.4666
-48.9009
-49.2868
-49.6247
-49.9157
-50.1613
-50.3629
-50.5222
-50.6404
-50.7186
-50.7575
-46.3995
-47.0276
-47.6143
-48.1542
-48.6438
-49.0817
-49.468
-49.804
-50.0915
-50.3328
-50.5301
-50.6853
-50.8003
-50.8761
-50.9139
-46.5577
-47.2111
-47.8187
-48.3735
-48.872
-49.3134
-49.6988
-50.0309
-50.3127
-50.5476
-50.7385
-50.8881
-50.9984
-51.0711
-51.1072
-46.7519
-47.4401
-48.0751
-48.6485
-49.1568
-49.6003
-49.9823
-50.3073
-50.5802
-50.8056
-50.9875
-51.1293
-51.2334
-51.3018
-51.3357
-46.9859
-47.7215
-48.3925
-48.9881
-49.5057
-49.9482
-50.3221
-50.6351
-50.8944
-51.1063
-51.2759
-51.4072
-51.5033
-51.5663
-51.5974
-47.2661
-48.0671
-48.7846
-49.4052
-49.9289
-50.364
-50.7224
-51.016
-51.2553
-51.4484
-51.6017
-51.7196
-51.8055
-51.8617
-51.8894
-47.6023
-48.4956
-49.2729
-49.9184
-50.4399
-50.856
-51.1869
-51.4508
-51.6617
-51.8298
-51.9619
-52.0632
-52.1367
-52.1846
-52.2083
-48.0099
-49.0394
-49.8923
-50.5547
-51.0552
-51.4318
-51.7177
-51.9381
-52.1105
-52.2463
-52.3524
-52.4336
-52.4925
-52.531
-52.55
-48.5112
-49.759
-50.701
-51.3525
-51.7934
-52.0969
-52.3128
-52.4728
-52.5955
-52.6917
-52.7672
-52.8254
-52.8679
-52.8959
-52.9097
-49.1423
-50.7839
-51.7995
-52.3609
-52.6689
-52.8483
-52.9628
-53.0438
-53.1064
-53.1571
-53.1987
-53.232
-53.2571
-53.2739
-53.2824
-50.0278
-52.4344
-53.3504
-53.6218
-53.6727
-53.6632
-53.645
-53.6326
-53.6285
-53.631
-53.6377
-53.6458
-53.6536
-53.6595
-53.6627
-52.1015
-55.5745
-55.545
-55.1024
-54.7367
-54.4856
-54.3199
-54.2122
-54.1433
-54.1003
-54.0744
-54.0593
-54.051
-54.0468
-54.0451
-54.682
-54.6851
-54.692
-54.7042
-54.7244
-54.7567
-54.8074
-54.8867
-55.0117
-55.2124
-55.548
-56.1535
-57.4043
-60.6175
-71.4867
-55.0085
-55.0151
-55.0292
-55.0525
-55.0884
-55.1417
-55.2204
-55.3369
-55.5117
-55.7809
-56.2117
-56.9399
-58.2528
-60.7351
-65.0478
-55.33
-55.3395
-55.3594
-55.3917
-55.4397
-55.5088
-55.6069
-55.7461
-55.9457
-56.2363
-56.6682
-57.3197
-58.2891
-59.5811
-60.5966
-55.6444
-55.6561
-55.6805
-55.7194
-55.7761
-55.8554
-55.9644
-56.113
-56.3158
-56.5931
-56.9716
-57.4784
-58.101
-58.6184
-57.871
-55.9501
-55.9634
-55.9909
-56.0343
-56.0964
-56.1811
-56.2939
-56.4419
-56.6337
-56.8787
-57.1854
-57.5564
-57.9854
-58.5336
-59.9492
-56.246
-56.2604
-56.2898
-56.3358
-56.4005
-56.4869
-56.5987
-56.74
-56.9139
-57.1208
-57.3544
-57.5934
-57.7864
-57.846
-57.7017
-56.5313
-56.5463
-56.5767
-56.6238
-56.6891
-56.7747
-56.8828
-57.0148
-57.1702
-57.3435
-57.5194
-57.6619
-57.6794
-57.2997
-55.361
-56.8057
-56.8208
-56.8516
-56.8987
-56.9632
-57.0466
-57.1498
-57.2729
-57.4133
-57.5634
-57.7075
-57.8168
-57.8475
-57.8356
-58.733
-57.0689
-57.0839
-57.1144
-57.1608
-57.2239
-57.3044
-57.4028
-57.5185
-57.6486
-57.7865
-57.9198
-58.0257
-58.0443
-57.7398
-55.684
-57.321
-57.3358
-57.3656
-57.4109
-57.472
-57.5495
-57.6435
-57.7535
-57.8776
-58.0117
-58.151
-58.2947
-58.4648
-58.8596
-60.9063
-57.5621
-57.5766
-57.6056
-57.6494
-57.7084
-57.7828
-57.8729
-57.9784
-58.0985
-58.232
-58.3793
-58.545
-58.7281
-58.8321
-57.8665
-57.7926
-57.8066
-57.8346
-57.8768
-57.9335
-58.0049
-58.0912
-58.1926
-58.3092
-58.4417
-58.5945
-58.7827
-59.0455
-59.547
-61.283
-58.0127
-58.0262
-58.0531
-58.0937
-58.148
-58.2163
-58.2988
-58.3958
-58.5078
-58.6359
-58.7852
-58.9681
-59.1961
-59.4042
-58.7946
-58.2228
-58.2357
-58.2616
-58.3004
-58.3523
-58.4174
-58.496
-58.5882
-58.6941
-58.8143
-58.9525
-59.1217
-59.3594
-59.829
-61.3983
-58.4233
-58.4356
-58.4603
-58.4974
-58.5469
-58.6089
-58.6835
-58.7705
-58.8693
-58.9789
-59.0982
-59.2271
-59.3608
-59.4895
-59.5933
-58.6144
-58.6262
-58.6498
-58.6852
-58.7324
-58.7913
-58.862
-58.944
-59.0361
-59.1356
-59.2371
-59.3286
-59.3646
-59.167
-57.8689
-58.7967
-58.808
-58.8305
-58.8643
-58.9092
-58.9653
-59.0323
-59.11
-59.1967
-59.2895
-59.3829
-59.4682
-59.5296
-59.6084
-60.3899
-58.9704
-58.9812
-59.0027
-59.0349
-59.0777
-59.1312
-59.1951
-59.2691
-59.352
-59.4416
-59.5343
-59.6239
-59.6815
-59.5614
-58.3245
-59.1359
-59.1462
-59.1668
-59.1975
-59.2384
-59.2895
-59.3505
-59.4214
-59.5016
-59.5901
-59.6877
-59.8015
-59.9556
-60.2896
-61.7243
-59.2935
-59.3034
-59.3231
-59.3525
-59.3916
-59.4404
-59.4988
-59.5668
-59.6442
-59.7309
-59.8298
-59.9504
-60.1037
-60.253
-59.8145
-59.4435
-59.453
-59.4719
-59.5001
-59.5376
-59.5843
-59.6402
-59.7052
-59.7791
-59.862
-59.9568
-60.076
-60.2535
-60.624
-61.8614
-59.5862
-59.5953
-59.6135
-59.6406
-59.6766
-59.7214
-59.7749
-59.8369
-59.9067
-59.9832
-60.0667
-60.1607
-60.2682
-60.3927
-60.5252
-59.7218
-59.7306
-59.7481
-59.7742
-59.8089
-59.852
-59.9034
-59.9626
-60.0283
-60.0983
-60.1692
-60.2355
-60.2698
-60.1553
-59.2904
-59.8505
-59.859
-59.876
-59.9013
-59.9349
-59.9766
-60.0262
-60.0831
-60.1458
-60.2112
-60.2749
-60.3319
-60.3736
-60.4388
-61.022
-59.9726
-59.9808
-59.9973
-60.022
-60.0546
-60.0953
-60.1436
-60.1991
-60.2602
-60.3238
-60.3854
-60.4384
-60.46
-60.362
-59.6109
-60.0881
-60.0961
-60.1123
-60.1363
-60.1683
-60.2082
-60.2558
-60.3107
-60.3716
-60.4363
-60.5017
-60.5661
-60.6281
-60.7383
-61.4048
-60.1972
-60.2051
-60.2209
-60.2445
-60.276
-60.3154
-60.3626
-60.4174
-60.4793
-60.5467
-60.6187
-60.695
-60.7617
-60.7279
-59.9546
-60.2999
-60.3077
-60.3233
-60.3466
-60.3777
-60.4167
-60.4636
-60.5187
-60.5817
-60.6525
-60.7326
-60.83
-60.9639
-61.2306
-62.2465
-60.3965
-60.4042
-60.4196
-60.4426
-60.4734
-60.512
-60.5588
-60.6139
-60.6776
-60.7502
-60.8344
-60.939
-61.0726
-61.2126
-60.9847
-60.4869
-60.4945
-60.5097
-60.5325
-60.563
-60.6013
-60.6478
-60.7026
-60.7661
-60.8383
-60.9221
-61.0274
-61.1755
-61.4497
-62.266
-60.5712
-60.5787
-60.5938
-60.6164
-60.6466
-60.6846
-60.7306
-60.7848
-60.847
-60.9169
-60.9949
-61.0853
-61.1898
-61.3097
-61.4331
-60.6494
-60.6569
-60.6718
-60.6942
-60.7242
-60.7619
-60.8074
-60.8608
-60.9215
-60.9882
-61.0591
-61.1327
-61.1923
-61.1668
-60.6962
-60.7216
-60.729
-60.7439
-60.7662
-60.7959
-60.8333
-60.8784
-60.9311
-60.9905
-61.0548
-61.1216
-61.1893
-61.2525
-61.3326
-61.7117
-60.7878
-60.7952
-60.81
-60.8321
-60.8618
-60.8989
-60.9437
-60.996
-61.0548
-61.1182
-61.1834
-61.2482
-61.2998
-61.2904
-60.9319
-60.848
-60.8554
-60.8701
-60.8922
-60.9218
-60.9588
-61.0036
-61.0558
-61.1148
-61.1786
-61.2455
-61.3158
-61.3883
-61.4901
-61.8881
-60.9023
-60.9096
-60.9243
-60.9464
-60.9759
-61.013
-61.0579
-61.1104
-61.1699
-61.2353
-61.3053
-61.3811
-61.4553
-61.4836
-61.1565
-60.9505
-60.9579
-60.9726
-60.9947
-61.0243
-61.0615
-61.1065
-61.1594
-61.2198
-61.287
-61.3611
-61.447
-61.5529
-61.7233
-62.249
-60.9928
-61.0002
-61.0149
-61.0371
-61.0667
-61.104
-61.1492
-61.2025
-61.2637
-61.3322
-61.4088
-61.4985
-61.6042
-61.7161
-61.6764
-61.0291
-61.0365
-61.0513
-61.0735
-61.1032
-61.1407
-61.1861
-61.2396
-61.3012
-61.3701
-61.4473
-61.5382
-61.6502
-61.8135
-62.1868
-61.0594
-61.0668
-61.0817
-61.104
-61.1338
-61.1714
-61.2169
-61.2706
-61.3321
-61.4007
-61.4764
-61.5626
-61.6591
-61.7646
-61.8672
-61.0837
-61.0912
-61.1061
-61.1284
-61.1584
-61.1961
-61.2417
-61.2954
-61.3568
-61.4246
-61.4983
-61.5791
-61.6606
-61.7173
-61.6296
-61.1019
-61.1094
-61.1244
-61.1469
-61.177
-61.2148
-61.2606
-61.3144
-61.3756
-61.4429
-61.5154
-61.5945
-61.6779
-61.77
-61.9448
-61.1141
-61.1216
-61.1367
-61.1593
-61.1896
-61.2277
-61.2736
-61.3275
-61.3887
-61.4558
-61.5278
-61.6062
-61.688
-61.7648
-61.789
-61.1201
-61.1277
-61.1429
-61.1657
-61.1962
-61.2345
-61.2808
-61.335
-61.3964
-61.4637
-61.5359
-61.6149
-61.7002
-61.7957
-61.9336
-61.12
-61.1276
-61.143
-61.166
-61.1968
-61.2354
-61.2821
-61.3368
-61.3987
-61.4666
-61.5392
-61.6186
-61.7039
-61.7969
-61.9118
-61.1136
-61.1213
-61.1368
-61.1601
-61.1912
-61.2303
-61.2776
-61.3329
-61.3956
-61.4643
-61.5378
-61.6176
-61.7011
-61.7823
-61.8313
-61.101
-61.1088
-61.1245
-61.148
-61.1795
-61.2191
-61.267
-61.3232
-61.387
-61.457
-61.5321
-61.6135
-61.6984
-61.7896
-61.9452
-61.082
-61.0899
-61.1058
-61.1297
-61.1616
-61.2018
-61.2504
-61.3076
-61.3727
-61.4445
-61.5221
-61.6061
-61.6903
-61.7517
-61.6902
-61.0566
-61.0646
-61.0807
-61.1049
-61.1373
-61.1781
-61.2275
-61.2857
-61.3523
-61.4264
-61.5075
-61.5981
-61.6965
-61.7987
-61.8912
-61.0247
-61.0329
-61.0492
-61.0737
-61.1065
-61.1479
-61.1981
-61.2574
-61.3255
-61.4017
-61.4864
-61.584
-61.6989
-61.8518
-62.1675
-60.9863
-60.9946
-61.0111
-61.0359
-61.0692
-61.1112
-61.1622
-61.2223
-61.2915
-61.3693
-61.4564
-61.5573
-61.6734
-61.7916
-61.7705
-60.9412
-60.9496
-60.9663
-60.9915
-61.0253
-61.0678
-61.1194
-61.1803
-61.2503
-61.3288
-61.4166
-61.5195
-61.6452
-61.8276
-62.2732
-60.8894
-60.8979
-60.9149
-60.9404
-60.9746
-61.0177
-61.0699
-61.1314
-61.2017
-61.28
-61.3665
-61.4652
-61.5764
-61.6804
-61.5583
-60.8308
-60.8394
-60.8566
-60.8825
-60.9171
-60.9608
-61.0136
-61.0756
-61.1462
-61.2239
-61.308
-61.4015
-61.5111
-61.6897
-62.3078
-60.7653
-60.774
-60.7915
-60.8177
-60.8528
-60.897
-60.9505
-61.0132
-61.0843
-61.1617
-61.2429
-61.326
-61.3967
-61.3934
-60.9317
-60.6929
-60.7017
-60.7194
-60.7459
-60.7815
-60.8264
-60.8807
-60.9444
-61.0166
-61.095
-61.1766
-61.2585
-61.3322
-61.4151
-61.8119
-60.6134
-60.6223
-60.6402
-60.6671
-60.7032
-60.7488
-60.804
-60.869
-60.9431
-61.0244
-61.11
-61.196
-61.26
-61.2183
-60.6706
-60.5268
-60.5358
-60.5539
-60.5811
-60.6177
-60.6639
-60.7202
-60.7867
-60.8633
-60.949
-61.0433
-61.148
-61.26
-61.3723
-61.4684
-60.4331
-60.4421
-60.4604
-60.4879
-60.5249
-60.5717
-60.6288
-60.6968
-60.7758
-60.866
-60.9694
-61.0944
-61.2583
-61.5371
-62.3441
-60.332
-60.3412
-60.3596
-60.3873
-60.4246
-60.4718
-60.5296
-60.5985
-60.679
-60.772
-60.8804
-61.0131
-61.1756
-61.3346
-61.0906
-60.2237
-60.2329
-60.2514
-60.2793
-60.3167
-60.3642
-60.4222
-60.4914
-60.5723
-60.6656
-60.7746
-60.9103
-61.0941
-61.4116
-62.3796
-60.1081
-60.1173
-60.1359
-60.1638
-60.2013
-60.2488
-60.3067
-60.3756
-60.4555
-60.5465
-60.6502
-60.7735
-60.9183
-61.0364
-60.6018
-59.9851
-59.9944
-60.0129
-60.0408
-60.0783
-60.1257
-60.1833
-60.2515
-60.3296
-60.4167
-60.5123
-60.6212
-60.7599
-61.0444
-62.2836
-59.8549
-59.8641
-59.8826
-59.9104
-59.9478
-59.995
-60.0523
-60.1197
-60.1962
-60.2793
-60.3651
-60.4476
-60.4987
-60.3889
-59.2975
-59.7172
-59.7264
-59.7448
-59.7726
-59.8099
-59.8569
-59.914
-59.981
-60.0567
-60.1382
-60.2202
-60.2951
-60.3479
-60.4147
-61.1045
-59.5723
-59.5815
-59.5998
-59.6274
-59.6645
-59.7113
-59.7683
-59.8355
-59.9119
-59.9951
-60.0802
-60.1574
-60.1859
-60.0074
-58.8553
-59.4201
-59.4292
-59.4474
-59.4748
-59.5117
-59.5583
-59.6153
-59.6829
-59.761
-59.8488
-59.9456
-60.053
-60.1662
-60.2759
-60.3636
-59.2607
-59.2697
-59.2877
-59.3149
-59.3515
-59.3978
-59.4545
-59.5223
-59.6019
-59.6944
-59.8038
-59.9438
-60.1476
-60.559
-61.9441
-59.0941
-59.103
-59.1209
-59.1477
-59.1838
-59.2295
-59.2856
-59.3528
-59.4324
-59.5265
-59.6409
-59.7895
-59.9835
-60.1655
-59.6278
-58.9204
-58.9292
-58.9469
-58.9733
-59.0088
-59.0537
-59.1085
-59.1741
-59.2515
-59.3428
-59.4542
-59.603
-59.8265
-60.2713
-61.8193
-58.7397
-58.7484
-58.7658
-58.7919
-58.8267
-58.8706
-58.9237
-58.9865
-59.0595
-59.1434
-59.2416
-59.364
-59.5143
-59.6106
-58.7725
-58.5521
-58.5607
-58.5779
-58.6036
-58.6378
-58.6805
-58.7317
-58.7913
-58.8586
-58.9322
-59.0121
-59.105
-59.2383
-59.5982
-61.4794
-58.3575
-58.3661
-58.3832
-58.4086
-58.4423
-58.484
-58.5335
-58.5901
-58.6518
-58.7149
-58.7736
-58.8174
-58.8034
-58.5289
-56.6992
-58.1561
-58.1647
-58.1818
-58.2072
-58.2406
-58.2818
-58.3302
-58.3846
-58.4425
-58.499
-58.5455
-58.5692
-58.5481
-58.5391
-59.4642
-57.9479
-57.9566
-57.9738
-57.9994
-58.0329
-58.0741
-58.1222
-58.176
-58.233
-58.2882
-58.3332
-58.3514
-58.2832
-57.9003
-56.0831
-57.7327
-57.7415
-57.7591
-57.7852
-57.8194
-57.8612
-57.91
-57.9647
-58.0232
-58.0826
-58.1396
-58.1929
-58.2353
-58.2569
-58.2507
-57.5105
-57.5196
-57.5378
-57.5646
-57.5999
-57.643
-57.6933
-57.7499
-57.8115
-57.877
-57.9487
-58.0413
-58.2007
-58.6324
-60.4249
-57.281
-57.2905
-57.3095
-57.3375
-57.3743
-57.4194
-57.4719
-57.5311
-57.5957
-57.6652
-57.7432
-57.8428
-57.9754
-58.0625
-57.1522
-57.0441
-57.0541
-57.074
-57.1036
-57.1424
-57.1901
-57.2457
-57.3079
-57.3751
-57.4459
-57.5227
-57.6206
-57.7805
-58.1846
-59.961
-56.7993
-56.8099
-56.831
-56.8624
-56.9039
-56.9549
-57.0144
-57.0806
-57.1507
-57.2206
-57.2877
-57.3547
-57.4147
-57.3534
-56.0767
-56.5463
-56.5575
-56.5799
-56.6135
-56.6581
-56.7133
-56.7781
-56.8501
-56.925
-56.9955
-57.0529
-57.0929
-57.1319
-57.3657
-59.2541
-56.2847
-56.2965
-56.3203
-56.3563
-56.4045
-56.4648
-56.5364
-56.617
-56.7009
-56.7778
-56.8303
-56.8311
-56.7124
-56.2284
-53.9455
-56.0139
-56.0264
-56.0515
-56.0897
-56.1417
-56.208
-56.2883
-56.3809
-56.4805
-56.5752
-56.6437
-56.6515
-56.5454
-56.3398
-56.8703
-55.7337
-55.7466
-55.7727
-55.813
-55.8686
-55.9409
-56.0312
-56.1394
-56.262
-56.3891
-56.4993
-56.5505
-56.4463
-55.9396
-54.0652
-55.4438
-55.4568
-55.4834
-55.5249
-55.5832
-55.6611
-55.7615
-55.8872
-56.039
-56.2131
-56.396
-56.5568
-56.6253
-56.4887
-56.0774
-55.144
-55.1567
-55.1829
-55.2243
-55.2838
-55.3652
-55.4738
-55.6162
-55.7994
-56.0293
-56.308
-56.6265
-56.9456
-57.2281
-57.8143
-54.8345
-54.8464
-54.871
-54.9106
-54.9685
-55.05
-55.1624
-55.3164
-55.5259
-55.81
-56.1925
-56.6952
-57.2901
-57.7562
-57.2515
-54.5161
-54.5264
-54.5481
-54.5835
-54.6364
-54.7129
-54.8219
-54.9773
-55.1994
-55.5206
-55.9934
-56.6995
-57.7227
-58.958
-59.0651
-54.1897
-54.1978
-54.2149
-54.2435
-54.2873
-54.3527
-54.449
-54.5912
-54.8028
-55.1244
-55.6325
-56.4829
-58.0068
-60.9428
-66.6956
-53.857
-53.862
-53.8731
-53.8922
-53.9228
-53.9706
-54.044
-54.1563
-54.3285
-54.5973
-55.0339
-55.7982
-57.3091
-60.971
-72.5981
-73.394
-61.663
-57.9336
-56.3887
-55.6068
-55.1596
-54.8841
-54.707
-54.5909
-54.5144
-54.464
-54.4313
-54.4107
-54.3986
-54.3931
-67.8681
-61.6406
-58.5869
-57.0279
-56.1654
-55.652
-55.3275
-55.114
-54.9701
-54.8722
-54.8055
-54.7605
-54.731
-54.7133
-54.705
-59.2729
-59.4135
-58.2009
-57.1831
-56.4815
-56.0118
-55.6927
-55.4719
-55.3171
-55.208
-55.1314
-55.0782
-55.0426
-55.0207
-55.0103
-57.993
-58.1255
-57.6784
-57.1183
-56.6366
-56.2657
-55.9886
-55.7833
-55.6319
-55.521
-55.4405
-55.3831
-55.3439
-55.3194
-55.3076
-56.6306
-57.2392
-57.233
-56.9987
-56.7148
-56.4531
-56.2333
-56.0565
-55.9183
-55.8125
-55.733
-55.6748
-55.6342
-55.6085
-55.5961
-56.5963
-56.7793
-56.9448
-56.9133
-56.7774
-56.6102
-56.4468
-56.3024
-56.1819
-56.0853
-56.0101
-55.9536
-55.9134
-55.8877
-55.8751
-54.7038
-56.3309
-56.792
-56.9
-56.8616
-56.7632
-56.6459
-56.531
-56.4287
-56.3428
-56.2737
-56.2205
-56.1819
-56.1569
-56.1446
-57.1692
-56.6914
-56.8833
-56.988
-56.9873
-56.9279
-56.8421
-56.7502
-56.6637
-56.5882
-56.5258
-56.4766
-56.4403
-56.4165
-56.4047
-54.4988
-56.5862
-57.0338
-57.1487
-57.1539
-57.1095
-57.0412