/*--------------------------------*- C++ -*----------------------------------*\
| =========                 |                                                 |
| \\      /  F ield         | OpenFOAM: The Open Source CFD Toolbox           |
|  \\    /   O peration     | Version:  5.x                                   |
|   \\  /    A nd           | Web:      www.OpenFOAM.org                      |
|    \\/     M anipulation  |                                                 |
\*---------------------------------------------------------------------------*/
FoamFile
{
    version     2.0;
    format      ascii;
    class       volScalarField;
    location    "1.8";
    object      gradTy;
}
// * * * * * * * * * * * * * * * * * * * * * * * * * * * * * * * * * * * * * //

dimensions      [0 -1 0 1 0 0 0];

internalField   nonuniform List<scalar> 
6300
(
32274.6
32223.7
32173
32122.3
32071.8
32021.4
31971.2
31921.3
31871.7
31822.5
31773.5
31725.1
31677
31629.4
31582.4
-0.0283213
-0.0850767
-0.142147
-0.199689
-0.257781
-0.316388
-0.375326
-0.434245
-0.49262
-0.549766
-0.604893
-0.657203
-0.706031
-0.751004
-0.792191
-0.0470742
-0.14143
-0.23637
-0.332189
-0.429051
-0.526929
-0.625542
-0.724317
-0.822358
-0.918466
-1.01122
-1.09913
-1.1809
-1.25575
-1.32371
-0.0656273
-0.1972
-0.3297
-0.463623
-0.599278
-0.736699
-0.875556
-1.01508
-1.15398
-1.29047
-1.42232
-1.54713
-1.66265
-1.76734
-1.86099
-0.083855
-0.252037
-0.421599
-0.593315
-0.767723
-0.94501
-1.12488
-1.30642
-1.48797
-1.66706
-1.84044
-2.00438
-2.15517
-2.28994
-2.4078
-0.101599
-0.305471
-0.511313
-0.720275
-0.93324
-1.15068
-1.37247
-1.59768
-1.82435
-2.04926
-2.26791
-2.4747
-2.66359
-2.82938
-2.96951
-0.118669
-0.356926
-0.597891
-0.843206
-1.09425
-1.35195
-1.61658
-1.88743
-2.16241
-2.43766
-2.70719
-2.96287
-3.19507
-3.39442
-3.55488
-0.134818
-0.405661
-0.68009
-0.960371
-1.24854
-1.54623
-1.85442
-2.17297
-2.50012
-2.83169
-3.16023
-3.47444
-3.75933
-3.99831
-4.1781
-0.149752
-0.450787
-0.756402
-1.0696
-1.39324
-1.72995
-2.08179
-2.44982
-2.83333
-3.22865
-3.62752
-4.01524
-4.3694
-4.66131
-4.86301
-0.163146
-0.491307
-0.825092
-1.16831
-1.52481
-1.89845
-2.29288
-2.7111
-3.15464
-3.62197
-4.10588
-4.58949
-5.04162
-5.41438
-5.65054
-0.174663
-0.526175
-0.884305
-1.25367
-1.63917
-2.04609
-2.48008
-2.94696
-3.45206
-3.99863
-4.58442
-5.19508
-5.79304
-6.3038
-6.61296
-0.183985
-0.554396
-0.932239
-1.32282
-1.73203
-2.16657
-2.63431
-3.14452
-3.70792
-4.33596
-5.03798
-5.81318
-6.63137
-7.39447
-7.88473
-0.190854
-0.575156
-0.967381
-1.3733
-1.79947
-2.25377
-2.74597
-3.28878
-3.89903
-4.59919
-5.41818
-6.38801
-7.52441
-8.75751
-9.73924
-0.195119
-0.587962
-0.98878
-1.40344
-1.83872
-2.30295
-2.80695
-3.36552
-4.00013
-4.74343
-5.64731
-6.79594
-8.32032
-10.3714
-12.7812
-0.196765
-0.592758
-0.996284
-1.41287
-1.84892
-2.31229
-2.81325
-3.36613
-3.99242
-4.72692
-5.6314
-6.82776
-8.58914
-11.6264
-18.1309
31539.7
31501.3
31463.3
31425.8
31388.6
31351.9
31315.7
31279.9
31244.6
31209.9
31175.6
31141.9
31108.7
31076.1
31044.1
31012.7
30981.8
30951.5
30921.8
30892.7
30864.2
30836.2
30808.8
30781.9
30755.5
30729.6
30704.2
30679.2
30654.7
30630.6
30606.8
30583.4
30560.4
30537.6
30515.1
30492.8
30470.8
30449
30427.3
30405.8
30384.4
30363.1
30341.9
30320.7
30299.6
30278.5
30257.3
30236.2
30214.9
30193.7
30172.3
30150.7
30129
30107.2
30085.1
30062.8
30040.3
30017.5
29994.3
29970.9
29947.1
29922.9
29898.3
29873.4
29848
29822.2
29795.9
29769.2
29742
29714.3
29686.1
29657.5
29628.3
29598.6
29568.3
29537.6
29506.4
29474.6
29442.3
29409.5
29376.1
29342.3
29307.9
29273.1
29237.7
29201.9
29165.5
29128.7
29091.4
29053.7
-0.827025
-0.857196
-0.88668
-0.916322
-0.946858
-0.978765
-1.01214
-1.04666
-1.08159
-1.11589
-1.14834
-1.17775
-1.20304
-1.2234
-1.23824
-1.24724
-1.25024
-1.24716
-1.238
-1.22279
-1.20163
-1.1747
-1.14233
-1.10494
-1.06306
-1.01731
-0.96831
-0.916711
-0.86313
-0.808163
-0.752372
-0.696267
-0.640286
-0.584772
-0.529962
-0.475998
-0.422946
-0.370828
-0.319651
-0.269416
-0.220107
-0.171668
-0.123967
-0.0767787
-0.0297885
0.0173809
0.0651152
0.113748
0.163508
0.214479
0.266594
0.31965
0.373337
0.427269
0.481018
0.534128
0.586138
0.636594
0.685085
0.731265
0.774884
0.815795
0.853941
0.889326
0.92197
0.951875
0.979011
1.00333
1.02479
1.04339
1.0592
1.07234
1.08299
1.09129
1.09735
1.10122
1.1029
1.1024
1.09976
1.09507
1.08849
1.08015
1.07012
1.05831
1.04447
1.02818
1.00893
0.986146
0.95936
0.92825
-1.38065
-1.42966
-1.47746
-1.5257
-1.57583
-1.62884
-1.68498
-1.74368
-1.80356
-1.86264
-1.91865
-1.96936
-2.01284
-2.04767
-2.07295
-2.08822
-2.09333
-2.08821
-2.07289
-2.04739
-2.01181
-1.96645
-1.91181
-1.84863
-1.77788
-1.70061
-1.61793
-1.53094
-1.44069
-1.34819
-1.2544
-1.1602
-1.06635
-0.973453
-0.881884
-0.791843
-0.703391
-0.616524
-0.531235
-0.447542
-0.365463
-0.28495
-0.205815
-0.12768
-0.04997
0.0280244
0.107043
0.18773
0.270519
0.355568
0.442743
0.531657
0.62174
0.712306
0.802606
0.891856
0.979252
1.064
1.14536
1.22272
1.29565
1.36392
1.42749
1.48643
1.54083
1.59071
1.63602
1.67661
1.71236
1.74325
1.76939
1.79104
1.80855
1.82221
1.83223
1.83866
1.84146
1.84056
1.836
1.82797
1.81679
1.80281
1.78622
1.76695
1.74456
1.71827
1.68707
1.64989
1.60579
1.55414
-1.93812
-2.00375
-2.06749
-2.13221
-2.20052
-2.27426
-2.354
-2.43885
-2.52652
-2.61365
-2.69644
-2.77121
-2.83493
-2.88553
-2.92191
-2.9437
-2.95096
-2.94382
-2.92229
-2.88633
-2.83595
-2.77142
-2.69343
-2.60311
-2.50194
-2.39157
-2.27365
-2.14977
-2.0214
-1.88998
-1.75692
-1.62353
-1.49099
-1.36015
-1.23155
-1.10535
-0.981513
-0.859914
-0.740498
-0.623333
-0.50856
-0.396252
-0.286242
-0.177996
-0.0705992
0.0371449
0.146511
0.258615
0.374198
0.493509
0.61629
0.741874
0.869329
0.997597
1.12557
1.25211
1.37602
1.49611
1.61122
1.72038
1.82294
1.91862
2.00751
2.08987
2.16597
2.23592
2.29958
2.35662
2.40671
2.44971
2.4858
2.51548
2.53939
2.55812
2.57202
2.58109
2.58509
2.58373
2.57699
2.56516
2.54889
2.52897
2.50594
2.47985
2.45005
2.41521
2.37359
2.32335
2.26288
2.19109
-2.50206
-2.5806
-2.65616
-2.73358
-2.81745
-2.91109
-3.01572
-3.13003
-3.25029
-3.37097
-3.48583
-3.589
-3.67594
-3.74391
-3.79189
-3.82014
-3.82938
-3.82015
-3.7925
-3.74607
-3.68048
-3.59578
-3.49281
-3.37322
-3.23926
-3.09339
-2.93796
-2.77503
-2.60648
-2.43413
-2.25987
-2.08562
-1.91312
-1.7436
-1.57769
-1.41541
-1.25636
-1.1001
-0.946456
-0.795608
-0.648033
-0.50417
-0.364046
-0.227005
-0.0916401
0.0440202
0.182134
0.324589
0.472614
0.626559
0.785911
0.94951
1.11587
1.28343
1.45072
1.61625
1.77843
1.93553
2.08578
2.22768
2.36025
2.48324
2.59705
2.70243
2.8001
2.89033
2.97281
3.04676
3.11138
3.16623
3.21158
3.24833
3.27779
3.30111
3.31889
3.33094
3.33652
3.33479
3.3254
3.30883
3.28637
3.25969
3.23016
3.19819
3.16287
3.122
3.07261
3.01159
2.9363
2.84495
-3.07626
-3.16165
-3.24209
-3.32565
-3.42029
-3.53208
-3.66351
-3.81267
-3.97345
-4.13668
-4.29205
-4.43018
-4.5443
-4.63106
-4.69031
-4.72397
-4.73438
-4.723
-4.68976
-4.63342
-4.55252
-4.44646
-4.31614
-4.16404
-3.99373
-3.80899
-3.61305
-3.4084
-3.19704
-2.98101
-2.7628
-2.54522
-2.33094
-2.12185
-1.91863
-1.7208
-1.52717
-1.33654
-1.14838
-0.963166
-0.782155
-0.606692
-0.437402
-0.273591
-0.113095
0.0473743
0.211515
0.382557
0.562522
0.751844
0.94944
1.1532
1.36069
1.5697
1.77843
1.98524
2.18818
2.38482
2.5724
2.74843
2.91139
3.06112
3.19875
3.32615
3.44498
3.55594
3.65833
3.75039
3.83016
3.8965
3.94976
3.99174
4.02507
4.05214
4.07405
4.09017
4.09853
4.09692
4.08419
4.06103
4.02998
3.99457
3.95794
3.92142
3.88372
3.84111
3.78844
3.72047
3.63289
3.52296
-3.66723
-3.74988
-3.82358
-3.90181
-3.99856
-4.12493
-4.28592
-4.47878
-4.69329
-4.91393
-5.1233
-5.30613
-5.45225
-5.55804
-5.62581
-5.66145
-5.67098
-5.65754
-5.62049
-5.55631
-5.46099
-5.33226
-5.17098
-4.98125
-4.76916
-4.54085
-4.30083
-4.05157
-3.79443
-3.53117
-3.26492
-3.00014
-2.74138
-2.49171
-2.25186
-2.0202
-1.7937
-1.56942
-1.34606
-1.12466
-0.908258
-0.700283
-0.502809
-0.315327
-0.134424
0.045541
0.231072
0.4278
0.639101
0.865376
1.10427
1.35172
1.60352
1.85659
2.10916
2.36004
2.60727
2.84745
3.07594
3.28831
3.48189
3.65673
3.81554
3.96253
4.10155
4.23424
4.3591
4.4721
4.56865
4.64601
4.70457
4.748
4.78178
4.811
4.83794
4.86097
4.87529
4.87549
4.85842
4.825
4.78026
4.7316
4.68597
4.64674
4.61202
4.57507
4.52665
4.45789
4.36199
4.2349
-4.28628
-4.35099
-4.39858
-4.45135
-4.53422
-4.66801
-4.86255
-5.11388
-5.40451
-5.7076
-5.99299
-6.23517
-6.41851
-6.54
-6.6078
-6.63678
-6.64086
-6.62633
-6.59051
-6.52426
-6.4178
-6.26513
-6.06703
-5.83085
-5.56812
-5.28978
-5.00209
-4.70626
-4.40082
-4.08577
-3.76505
-3.44654
-3.13884
-2.84753
-2.57338
-2.31223
-2.05709
-1.80105
-1.54094
-1.27901
-1.02223
-0.778748
-0.553808
-0.34755
-0.154348
0.0357596
0.234583
0.452152
0.694226
0.960858
1.24693
1.54415
1.84472
2.14439
2.44257
2.74033
3.03678
3.32715
3.60299
3.85555
4.07968
4.27574
4.4497
4.61072
4.76759
4.92418
5.07734
5.21786
5.33519
5.42297
5.4816
5.51857
5.54549
5.57358
5.6079
5.64476
5.67286
5.67936
5.65664
5.60573
5.53663
5.46473
5.40523
5.36599
5.34399
5.32599
5.29457
5.23476
5.13639
4.99415
-4.95367
-4.97666
-4.96602
-4.95738
-4.99634
-5.12341
-5.3572
-5.69222
-6.09762
-6.52665
-6.92479
-7.24882
-7.4737
-7.59917
-7.64557
-7.64787
-7.63742
-7.62569
-7.60424
-7.55005
-7.44104
-7.26333
-7.01785
-6.7186
-6.38949
-6.05211
-5.71498
-5.37471
-5.02096
-4.64846
-4.26195
-3.87729
-3.51263
-3.1786
-2.87611
-2.59556
-2.32173
-2.03848
-1.73842
-1.42593
-1.11704
-0.830493
-0.577893
-0.360957
-0.169805
0.0134314
0.211093
0.441191
0.71395
1.0283
1.37349
1.7317
2.08717
2.43428
2.77656
3.12245
3.47502
3.82772
4.1635
4.46365
4.71781
4.92653
5.10242
5.2648
5.43395
5.61895
5.8137
5.99688
6.1442
6.2418
6.28971
6.30351
6.30742
6.32708
6.37409
6.44104
6.50144
6.52519
6.49536
6.41255
6.29695
6.17992
6.09523
6.06034
6.07014
6.09613
6.10331
6.06709
5.97387
5.81929
-5.7064
-5.65045
-5.53025
-5.3944
-5.33099
-5.42442
-5.70526
-6.16837
-6.75584
-7.38932
-7.96248
-8.40441
-8.67118
-8.77137
-8.746
-8.67645
-8.635
-8.63821
-8.66432
-8.65396
-8.56241
-8.35837
-8.04532
-7.64862
-7.22208
-6.81338
-6.43174
-6.06193
-5.66745
-5.23074
-4.75562
-4.2787
-3.84182
-3.46378
-3.1468
-2.86883
-2.59957
-2.2998
-1.95352
-1.56741
-1.17953
-0.833234
-0.550561
-0.33722
-0.17389
-0.0297482
0.140758
0.368598
0.673525
1.05099
1.48091
1.92274
2.34116
2.73059
3.10477
3.49434
3.91241
4.35197
4.77456
5.13716
5.42055
5.6237
5.77367
5.90819
6.07647
6.29865
6.56564
6.8264
7.02363
7.13097
7.14571
7.10143
7.04544
7.03989
7.11029
7.24544
7.38147
7.44685
7.40905
7.26528
7.05804
6.84727
6.71222
6.6891
6.77173
6.89216
6.97336
6.98036
6.89859
6.73666
-6.61238
-6.41619
-6.11646
-5.72655
-5.43914
-5.45476
-5.78995
-6.46439
-7.34671
-8.33768
-9.18796
-9.81107
-10.1073
-10.1232
-9.90887
-9.66335
-9.56708
-9.6166
-9.77572
-9.87366
-9.84462
-9.60926
-9.19215
-8.62055
-8.02793
-7.53466
-7.13049
-6.78375
-6.37385
-5.86745
-5.25104
-4.62165
-4.08552
-3.66034
-3.3607
-3.12895
-2.92082
-2.62762
-2.22554
-1.71107
-1.18182
-0.744122
-0.423244
-0.241414
-0.150363
-0.110986
-0.0123013
0.184758
0.528341
0.997745
1.57071
2.14695
2.63625
3.04816
3.41001
3.82433
4.31795
4.89969
5.47102
5.92365
6.23767
6.39618
6.46589
6.5016
6.63999
6.91234
7.32505
7.74582
8.03087
8.15182
8.08497
7.91447
7.709
7.64155
7.7514
8.04672
8.36137
8.5152
8.47346
8.20752
7.82233
7.40372
7.1662
7.16378
7.41708
7.7429
7.94855
8.0198
7.93717
7.78481
-7.79952
-7.33037
-6.83203
-5.91076
-5.11093
-5.02518
-5.38653
-6.46144
-7.78156
-9.48906
-10.741
-11.6888
-11.9478
-11.8068
-11.1172
-10.4358
-10.2897
-10.4376
-10.9757
-11.2767
-11.4244
-11.1224
-10.5619
-9.62317
-8.69112
-8.12807
-7.74692
-7.59693
-7.21962
-6.66294
-5.7655
-4.83059
-4.16972
-3.67638
-3.47708
-3.35535
-3.36481
-3.11245
-2.65962
-1.87613
-1.05237
-0.486823
-0.0957206
-0.0149235
-0.0524709
-0.277674
-0.30704
-0.210063
0.202055
0.795523
1.65601
2.49664
3.04309
3.43813
3.64001
4.04049
4.59697
5.46283
6.33888
6.91025
7.2793
7.29709
7.20758
6.94773
7.01115
7.32455
8.07349
8.8614
9.27515
9.44385
9.17425
8.77862
8.17457
7.98868
8.12625
8.821
9.57372
9.86602
9.8616
9.32238
8.63565
7.70033
7.28254
7.27114
7.95887
8.76759
9.11814
9.28169
9.0771
9.02608
-9.55039
-8.28634
-8.15655
-5.91985
-3.75405
-3.95142
-3.95527
-6.10516
-7.65834
-11.2963
-12.7315
-14.5584
-14.3638
-14.2803
-12.3133
-10.4373
-10.5887
-10.6967
-12.5168
-12.9004
-13.6517
-13.0074
-12.4763
-10.616
-8.82281
-8.45938
-8.03032
-8.73731
-8.32351
-7.94897
-6.33379
-4.64477
-4.01253
-3.2689
-3.4816
-3.39274
-4.1857
-3.88587
-3.56974
-2.09913
-0.551039
0.0217245
0.678692
0.382038
0.315662
-0.726369
-0.783758
-1.05874
-0.385466
0.208701
1.76982
3.26985
3.66785
4.10619
3.58394
4.03191
4.43039
6.01117
7.64534
8.18807
8.82659
8.3524
8.19438
6.92819
7.02216
7.10936
8.76559
10.5156
10.8721
11.3668
10.4448
9.94264
8.03778
7.86978
7.6985
9.51156
11.4488
11.6439
12.0196
10.6495
9.8067
7.25152
6.81349
6.37156
8.3263
10.4519
10.5569
11.0736
9.99579
10.6111
-12.8745
-7.60891
-12.5147
-5.82649
1.0063
-3.15563
0.567062
-6.6073
-4.5322
-16.2745
-14.1573
-20.3381
-16.6187
-19.4654
-13.3773
-7.5185
-10.9494
-8.48937
-16.1255
-13.9937
-17.8877
-14.7285
-16.304
-11.5112
-6.89486
-8.88441
-6.67703
-11.4909
-9.37017
-11.0208
-7.00775
-2.93651
-4.0151
-1.4837
-3.91979
-2.1598
-6.57973
-4.6824
-6.14194
-2.4334
1.35508
0.409294
2.82651
0.447574
2.08881
-2.59292
-0.947259
-3.27303
-0.859326
-1.77081
1.97126
5.62963
4.23413
6.15703
2.13027
4.09398
2.56069
6.48197
10.5228
9.32723
11.9754
8.95162
10.776
4.9491
7.04187
4.63372
9.32156
14.1752
12.2687
15.3287
11.1095
13.1252
5.39857
7.75428
4.4119
10.0219
15.8312
13.1602
16.6902
11.2157
13.4423
3.75262
6.34874
2.01946
8.44642
15.0446
11.4014
15.1606
8.47502
13.3807
-23.9023
7.71569
-33.5675
-5.94087
21.5993
-13.7135
20.7813
-20.4285
18.4911
-41.2103
-3.63372
-40.374
-9.41844
-37.5163
-14.1109
8.77755
-19.7927
8.25655
-33.8001
-6.40983
-32.2803
-9.63162
-29.3019
-12.1524
4.54578
-15.3529
4.78694
-24.2302
-4.98602
-22.2485
-7.76538
6.18771
-9.2159
7.45489
-10.4002
7.97234
-18.0707
-0.645044
-16.1563
-2.88272
10.0787
-4.04573
11.881
-5.27587
12.9671
-13.5711
4.60803
-12.3124
3.45497
-10.4516
2.29322
15.2671
0.0219474
16.7755
-7.94979
9.19168
-7.16375
6.78059
20.9408
4.93151
23.2918
2.56945
24.3757
-8.43455
13.5428
-8.06031
9.63869
27.5695
6.51331
29.7727
2.79585
30.3368
-11.7594
15.8439
-11.7663
10.2454
32.4248
5.74713
34.3273
0.692181
34.2372
-17.4378
15.8566
-17.8215
8.31999
34.3848
1.58671
34.2878
-9.73697
23.6195
29011.7
28965.3
28918.3
28870.8
28822.8
28774.3
28725.5
28676.3
28626.7
28576.9
28526.9
28476.6
28426.3
28375.8
28325.3
0.889144
0.840223
0.785668
0.726456
0.66377
0.598836
0.532786
0.466562
0.400871
0.336177
0.272712
0.210514
0.149456
0.0892943
0.0297004
1.48877
1.40653
1.31452
1.21454
1.10872
0.999258
0.888138
0.776987
0.666996
0.558918
0.453109
0.349583
0.248092
0.148186
0.0492819
2.09921
1.98252
1.85127
1.70838
1.55724
1.40126
1.24344
1.08617
0.931141
0.77934
0.631183
0.486595
0.345128
0.206068
0.0685182
2.72608
2.57304
2.39965
2.21042
2.01055
1.80503
1.59812
1.39306
1.19198
0.996061
0.805643
0.620451
0.439736
0.262426
0.087236
3.37634
3.18393
2.96385
2.72312
2.46948
2.21013
1.95088
1.69586
1.44758
1.2072
0.974817
0.749785
0.530911
0.316648
0.10523
4.05922
3.82264
3.54883
3.24882
2.93422
2.61518
2.29941
1.99187
1.6952
1.41024
1.13656
0.872904
0.617435
0.368002
0.122255
4.78725
4.49877
4.16019
3.78925
3.40353
3.01714
2.63979
2.27701
1.93105
1.60191
1.28822
0.987762
0.697875
0.415642
0.138033
5.57793
5.22489
4.80382
4.34443
3.87355
3.41021
2.96578
2.54543
2.15006
1.77807
1.42655
1.09198
0.770607
0.458624
0.152253
6.45748
6.01827
5.48517
4.91059
4.3356
3.78428
3.26782
2.78898
2.34573
1.93374
1.54788
1.18294
0.833893
0.495958
0.164595
7.47053
6.9045
6.20717
5.47643
4.77303
4.12292
3.53209
2.99699
2.51016
2.06324
1.64824
1.25796
0.886011
0.526688
0.174753
8.70748
7.92258
6.96298
6.01538
5.15679
4.40171
3.74036
3.15663
2.63466
2.16081
1.72383
1.31458
0.925457
0.55
0.182468
10.3819
9.11531
7.70644
6.46588
5.43717
4.58656
3.87082
3.25442
2.711
2.22144
1.77164
1.351
0.951187
0.565353
0.187574
13.0712
10.4496
8.28059
6.70409
5.53914
4.6363
3.90181
3.27916
2.73345
2.24222
1.79022
1.36653
0.962881
0.572613
0.190035
18.0444
11.3309
8.26238
6.53056
5.37853
4.51735
3.82085
3.22691
2.70139
2.22372
1.78041
1.36194
0.961129
0.572143
0.189973
-0.196184
-0.59076
-0.992079
-1.40502
-1.83513
-2.28902
-2.77508
-3.3046
-3.89384
-4.56819
-5.37123
-6.38661
-7.79689
-10.0586
-14.4598
-0.193944
-0.583727
-0.979262
-1.38461
-1.80419
-2.24299
-2.70677
-3.20238
-3.738
-4.32312
-4.9667
-5.66733
-6.36618
-6.72916
-5.12245
-0.190378
-0.57267
-0.959585
-1.35426
-1.75986
-2.17955
-2.6163
-3.0723
-3.5477
-4.03728
-4.52235
-4.94916
-5.16865
-4.76696
-2.62864
-0.185735
-0.55837
-0.934475
-1.31625
-1.70567
-2.10422
-2.5124
-2.9287
-3.3474
-3.75434
-4.11827
-4.37499
-4.40228
-4.01052
-3.14531
-0.180273
-0.541633
-0.905378
-1.27287
-1.64507
-2.02213
-2.40284
-2.78336
-3.15514
-3.50098
-3.78842
-3.96029
-3.92641
-3.58281
-2.99949
-0.174235
-0.523211
-0.873631
-1.22617
-1.58101
-1.93746
-2.29336
-2.64406
-2.9808
-3.28788
-3.53853
-3.68863
-3.66521
-3.32145
-2.18445
-0.167835
-0.503757
-0.840361
-1.17781
-1.51577
-1.85311
-2.18743
-2.51444
-2.82696
-3.11375
-3.35813
-3.53752
-3.62615
-3.61079
-3.61367
-0.161248
-0.483802
-0.806457
-1.12902
-1.45087
-1.77076
-2.08653
-2.39484
-2.69095
-2.9689
-3.22257
-3.44938
-3.65908
-3.88727
-4.18719
-0.154611
-0.463748
-0.77257
-1.08066
-1.38726
-1.6912
-1.99074
-2.28364
-2.56751
-2.84078
-3.10541
-3.37302
-3.67895
-4.11372
-4.9078
-0.148023
-0.443886
-0.739151
-1.03326
-1.32543
-1.61461
-1.89947
-2.17867
-2.45136
-2.71855
-2.98598
-3.26991
-3.60914
-4.09045
-4.91999
-0.141555
-0.424416
-0.706493
-0.987153
-1.26561
-1.54092
-1.81205
-2.07813
-2.33894
-2.59606
-2.85492
-3.12824
-3.44049
-3.82511
-4.26535
-0.135252
-0.405466
-0.674781
-0.942521
-1.20791
-1.47006
-1.72807
-1.98115
-2.22898
-2.47225
-2.71367
-2.9594
-3.22139
-3.52095
-3.90793
-0.129144
-0.387117
-0.644127
-0.899474
-1.15238
-1.40201
-1.64743
-1.88775
-2.12209
-2.34961
-2.56925
-2.77916
-2.97601
-3.15589
-3.31434
-0.123247
-0.369415
-0.614591
-0.858069
-1.09908
-1.33679
-1.57026
-1.79841
-2.01984
-2.23231
-2.43144
-2.60786
-2.74223
-2.80555
-2.84458
-0.117569
-0.35238
-0.586199
-0.818327
-1.04802
-1.27446
-1.49671
-1.71366
-1.92371
-2.12413
-2.30925
-2.46566
-2.55762
-2.47192
-1.76331
-0.112112
-0.336014
-0.558946
-0.780232
-0.99916
-1.21496
-1.42678
-1.63363
-1.83419
-2.02647
-2.20683
-2.36813
-2.49622
-2.57071
-2.63888
-0.106871
-0.320303
-0.532803
-0.743729
-0.952416
-1.15816
-1.36024
-1.55789
-1.75034
-1.93695
-2.11752
-2.29355
-2.47189
-2.67377
-2.94513
-0.101837
-0.305219
-0.50772
-0.708739
-0.90766
-1.10386
-1.29671
-1.48568
-1.67048
-1.85152
-2.03122
-2.21725
-2.43107
-2.72841
-3.24849
-0.0970009
-0.290729
-0.483636
-0.675163
-0.864744
-1.05181
-1.23582
-1.41631
-1.59314
-1.76693
-1.94038
-2.12156
-2.3321
-2.62823
-3.16197
-0.0923483
-0.276793
-0.46048
-0.642898
-0.823525
-1.00183
-1.1773
-1.34942
-1.51783
-1.68247
-1.84406
-2.00536
-2.17356
-2.36288
-2.5749
-0.0878647
-0.263365
-0.438178
-0.611838
-0.783869
-0.953777
-1.12104
-1.28505
-1.44508
-1.60002
-1.74784
-1.88429
-2.00023
-2.08163
-2.16789
-0.0835344
-0.250399
-0.41665
-0.581872
-0.745641
-0.907507
-1.06697
-1.22339
-1.3758
-1.52242
-1.65939
-1.77737
-1.85075
-1.79691
-1.28831
-0.0793407
-0.237843
-0.395809
-0.552879
-0.708689
-0.862859
-1.01496
-1.16445
-1.31047
-1.45143
-1.58404
-1.70135
-1.7895
-1.82789
-1.84479
-0.075266
-0.225645
-0.375566
-0.524728
-0.672835
-0.819598
-0.964718
-1.10786
-1.24859
-1.38614
-1.5192
-1.64552
-1.76267
-1.87371
-2.01062
-0.0712928
-0.21375
-0.355825
-0.497275
-0.637875
-0.777431
-0.915798
-1.05291
-1.18884
-1.3239
-1.45893
-1.59599
-1.73999
-1.90144
-2.09947
-0.067404
-0.202106
-0.336496
-0.470382
-0.603601
-0.736046
-0.867702
-0.998734
-1.12964
-1.2616
-1.39715
-1.54156
-1.70508
-1.90367
-2.1442
-0.0635841
-0.190666
-0.317495
-0.443921
-0.569829
-0.695166
-0.819995
-0.944595
-1.06966
-1.19674
-1.32911
-1.4738
-1.64572
-1.87666
-2.23645
-0.0598199
-0.179389
-0.298753
-0.417791
-0.536417
-0.654598
-0.772404
-0.890085
-1.00823
-1.12812
-1.25245
-1.38705
-1.54527
-1.76008
-2.1269
-0.0561003
-0.168243
-0.280216
-0.391921
-0.503279
-0.614252
-0.724858
-0.835205
-0.945546
-1.05637
-1.16856
-1.28383
-1.40542
-1.53784
-1.66828
-0.0524171
-0.157203
-0.261848
-0.366265
-0.470378
-0.574125
-0.677452
-0.780287
-0.882476
-0.983587
-1.08246
-1.17617
-1.25796
-1.31689
-1.37448
-0.0487634
-0.14625
-0.243619
-0.340794
-0.4377
-0.534256
-0.630349
-0.725779
-0.820105
-0.912298
-0.999883
-1.07672
-1.1263
-1.09681
-0.786904
-0.0451338
-0.135369
-0.225508
-0.315487
-0.405237
-0.494675
-0.583674
-0.672001
-0.759173
-0.84415
-0.924697
-0.996155
-1.04948
-1.07138
-1.07699
-0.0415231
-0.124545
-0.207492
-0.290317
-0.372963
-0.455367
-0.537432
-0.61899
-0.699724
-0.779021
-0.855756
-0.928142
-0.994392
-1.05723
-1.14266
-0.0379263
-0.113762
-0.189546
-0.265247
-0.340832
-0.416266
-0.491511
-0.566519
-0.641235
-0.715619
-0.789771
-0.864344
-0.941613
-1.02731
-1.13054
-0.0343382
-0.103005
-0.171644
-0.240239
-0.30878
-0.377267
-0.445723
-0.51422
-0.582941
-0.65233
-0.723432
-0.798624
-0.882918
-0.985161
-1.11474
-0.030754
-0.0922592
-0.153757
-0.215249
-0.276742
-0.338263
-0.399879
-0.461735
-0.524149
-0.587807
-0.654199
-0.726537
-0.8117
-0.923967
-1.09163
-0.027169
-0.0815102
-0.135863
-0.190239
-0.24466
-0.299168
-0.35384
-0.408834
-0.46446
-0.521346
-0.580783
-0.645502
-0.721602
-0.824242
-1.00059
-0.023579
-0.0707456
-0.117939
-0.16518
-0.212498
-0.259933
-0.307552
-0.355465
-0.403863
-0.453072
-0.503651
-0.556524
-0.613018
-0.673277
-0.721184
-0.0199807
-0.0599551
-0.0999697
-0.140053
-0.180234
-0.220548
-0.261034
-0.301733
-0.342671
-0.383808
-0.424879
-0.464994
-0.501768
-0.530841
-0.560058
-0.0163708
-0.0491299
-0.0819418
-0.114841
-0.147859
-0.181023
-0.214346
-0.247809
-0.281311
-0.314551
-0.346728
-0.375754
-0.395817
-0.388263
-0.28045
-0.0127465
-0.0382615
-0.0638426
-0.0895313
-0.115364
-0.141365
-0.167538
-0.193835
-0.220107
-0.245995
-0.270722
-0.292709
-0.308999
-0.31527
-0.315462
-0.00910462
-0.027341
-0.0456584
-0.0641078
-0.0827342
-0.10157
-0.120623
-0.139856
-0.159143
-0.178211
-0.196578
-0.213594
-0.229093
-0.246467
-0.286049
-0.00544187
-0.0163584
-0.0273728
-0.0385481
-0.0499426
-0.0616047
-0.0735645
-0.0858185
-0.098306
-0.110884
-0.123332
-0.135503
-0.147845
-0.162202
-0.178712
-0.00175444
-0.00530209
-0.00896615
-0.0128235
-0.0169493
-0.0214147
-0.0262825
-0.0315995
-0.0373846
-0.0436161
-0.0502393
-0.0572621
-0.0651591
-0.0764024
-0.103632
0.00196176
0.00584037
0.00958355
0.0130997
0.0162948
0.0190719
0.0213299
0.0229638
0.0238682
0.0239505
0.0231652
0.0216154
0.0198879
0.0205369
0.0360257
0.0057109
0.0170819
0.0282993
0.0392572
0.0498434
0.0599352
0.0693932
0.0780522
0.0857132
0.0921461
0.0971331
0.100644
0.103321
0.107208
0.112057
0.00949697
0.0284349
0.0472033
0.0656838
0.0837488
0.101254
0.118028
0.133852
0.148432
0.161372
0.172157
0.180279
0.18595
0.193249
0.222673
0.0133235
0.0399103
0.0663146
0.0924091
0.118055
0.143096
0.167339
0.190531
0.21231
0.23212
0.249061
0.261639
0.267482
0.263958
0.256591
0.0171933
0.0515166
0.0856484
0.119456
0.152795
0.185505
0.217394
0.248207
0.277574
0.304886
0.329024
0.347696
0.355553
0.337363
0.235368
0.0211084
0.06326
0.105214
0.146836
0.187982
0.228498
0.26821
0.306903
0.344284
0.37988
0.41281
0.441285
0.461742
0.468994
0.470232
0.0250702
0.0751442
0.125018
0.174556
0.223618
0.272063
0.319746
0.366524
0.412249
0.456747
0.499719
0.54046
0.577132
0.604825
0.606202
0.0290794
0.0871712
0.145061
0.202613
0.259692
0.316167
0.371923
0.426889
0.481083
0.534694
0.588202
0.642481
0.698787
0.75896
0.832223
0.0331364
0.0993417
0.165344
0.231008
0.296196
0.360781
0.424661
0.487803
0.550335
0.612734
0.676177
0.743116
0.817784
0.904034
0.983235
0.0372412
0.111656
0.185868
0.259739
0.333128
0.405895
0.477922
0.549151
0.619693
0.690066
0.761747
0.838406
0.928763
1.05403
1.2731
0.0413936
0.124115
0.206634
0.288813
0.370499
0.451533
0.531747
0.610988
0.68918
0.766506
0.843883
0.924203
1.01552
1.13892
1.34509
0.0455931
0.136715
0.227642
0.318233
0.408331
0.497749
0.586258
0.673564
0.759282
0.842928
0.923996
1.00238
1.08003
1.16636
1.29024
0.0498379
0.149454
0.248887
0.348002
0.446641
0.544604
0.641613
0.737251
0.830833
0.921157
1.00599
1.08108
1.13854
1.16774
1.1899
0.054125
0.162322
0.270356
0.378107
0.485427
0.592127
0.697926
0.802373
0.904657
1.00321
1.09478
1.17203
1.21668
1.17404
0.834083
0.0584494
0.175305
0.292026
0.408514
0.52465
0.640281
0.755185
0.869002
0.98108
1.09014
1.19352
1.28564
1.35546
1.38684
1.40064
0.0628047
0.188382
0.31386
0.439168
0.564227
0.688945
0.813205
0.936845
1.05961
1.18101
1.30008
1.41475
1.52097
1.61184
1.67157
0.067183
0.201529
0.335814
0.469998
0.604045
0.73793
0.871657
1.0053
1.13908
1.27353
1.40972
1.54973
1.69714
1.85849
2.05508
0.0715757
0.214719
0.357839
0.500925
0.643978
0.787028
0.930171
1.07366
1.2181
1.36483
1.51673
1.67958
1.86365
2.08068
2.30431
0.0759741
0.227926
0.379889
0.531877
0.683915
0.836061
0.988444
1.14136
1.29552
1.45255
1.61614
1.79471
2.00728
2.29831
2.7842
0.0803701
0.241124
0.401921
0.562792
0.723777
0.88493
1.04634
1.20821
1.37096
1.5357
1.70515
1.88622
2.09645
2.38061
2.85206
0.0847562
0.254293
0.423901
0.593628
0.763522
0.933617
1.10393
1.27443
1.44502
1.61558
1.7861
1.95748
2.13429
2.33285
2.59209
0.0891255
0.26741
0.445795
0.624347
0.803123
0.98215
1.16138
1.34057
1.51911
1.6955
1.86645
2.02495
2.15704
2.24295
2.32365
0.093471
0.280456
0.467572
0.654907
0.842545
1.03054
1.21884
1.40717
1.59468
1.77918
1.95545
2.11077
2.21185
2.15668
1.54994
0.0977859
0.293409
0.489193
0.685252
0.881715
1.0787
1.27628
1.47434
1.67232
1.86857
2.059
2.23425
2.37516
2.45343
2.50756
0.102064
0.306249
0.510617
0.715311
0.920513
1.12645
1.33337
1.54155
1.75115
1.962
2.17306
2.38156
2.58197
2.76693
2.92721
0.1063
0.31896
0.531808
0.74501
0.958795
1.17349
1.38958
1.60776
1.82911
2.05526
2.2889
2.53447
2.79949
3.09756
3.46544
0.110495
0.331536
0.552747
0.774294
0.996431
1.21956
1.44432
1.67176
1.9037
2.14331
2.39644
2.67385
2.99402
3.37971
3.80178
0.114651
0.343988
0.573445
0.803158
1.03337
1.26447
1.49717
1.73263
1.97294
2.22194
2.48708
2.7835
3.14305
3.63655
4.44104
0.118782
0.356352
0.593955
0.831667
1.06966
1.30827
1.54808
1.79011
2.03612
2.28933
2.55599
2.84927
3.19901
3.67741
4.46987
0.122908
0.368688
0.614378
0.859965
1.10551
1.35121
1.59743
1.84479
2.09427
2.34734
2.60638
2.87581
3.16558
3.50012
3.91998
0.127054
0.381079
0.634861
0.888272
1.14124
1.39377
1.64597
1.89799
2.14989
2.40116
2.64951
2.88817
3.10103
3.26354
3.43971
0.131257
0.393631
0.655589
0.91687
1.17725
1.43654
1.69459
1.95122
2.20591
2.45698
2.69933
2.91841
3.0714
3.01741
2.1928
0.135554
0.406463
0.676771
0.946076
1.21399
1.48013
1.74417
2.00578
2.26441
2.51878
2.76527
2.9945
3.18543
3.30639
3.41877
0.139987
0.419703
0.698633
0.976229
1.25192
1.52515
1.79541
2.06235
2.32584
2.58602
2.84313
3.09713
3.348
3.60128
3.88533
0.144597
0.433478
0.721403
1.00768
1.29154
1.5722
1.84893
2.12128
2.38951
2.65532
2.92308
3.20187
3.5088
3.87472
4.3597
0.149419
0.447905
0.745301
1.04077
1.33335
1.62194
1.90544
2.18301
2.4548
2.7232
2.99529
3.28698
3.62857
4.06538
4.61135
0.154482
0.463077
0.770513
1.07585
1.37789
1.67518
1.96601
2.24872
2.5224
2.78844
3.05381
3.33736
3.68213
4.18011
5.03216
0.159796
0.479039
0.797162
1.11317
1.42569
1.73285
2.03216
2.32064
2.59523
2.85408
3.09961
3.34514
3.6292
4.04886
4.86024
0.165346
0.495762
0.825253
1.15288
1.47717
1.79591
2.10578
2.40216
2.67893
2.92889
3.14531
3.32607
3.48198
3.64545
3.82854
0.171083
0.51311
0.854612
1.19486
1.53247
1.86507
2.18871
2.49721
2.78117
3.0269
3.21567
3.32419
3.32938
3.2283
3.15069
0.176909
0.530803
0.884813
1.23862
1.5912
1.94038
2.2821
2.60925
2.90988
3.16439
3.34165
3.39396
3.25044
2.79475
1.70418
0.182675
0.548394
0.915124
1.28318
1.65223
2.02082
2.38555
2.73966
3.07053
3.35542
3.5543
3.59965
3.38815
2.80195
1.86715
0.188176
0.565262
0.94448
1.327
1.71352
2.10387
2.49631
2.88613
3.26305
3.6061
3.87346
3.9836
3.7859
3.05111
1.71006
0.193161
0.580627
0.971507
1.36799
1.77208
2.18541
2.60882
3.04149
3.47904
3.90924
4.30167
4.58121
4.55644
3.72111
0.732579
0.197342
0.593596
0.994602
1.40364
1.82416
2.25989
2.71485
3.19341
3.70007
4.23853
4.80812
5.38996
5.88968
5.88625
3.47412
0.200422
0.60324
1.01207
1.43125
1.86562
2.32094
2.80442
3.32577
3.89899
4.54614
5.30592
6.25546
7.57194
9.72432
14.1426
13.7711
9.27778
7.15596
5.88804
4.98567
4.26849
3.65954
3.12092
2.63137
2.17754
1.75026
1.3427
0.949436
0.565897
0.188014
2.73419
5.32699
5.43353
5.00627
4.48029
3.95662
3.4577
2.98628
2.53991
2.11492
1.70752
1.31408
0.93124
0.555818
0.184789
-0.136565
3.10262
4.08162
4.19289
3.97316
3.62742
3.23668
2.83417
2.43354
2.04003
1.65501
1.27806
0.907854
0.542664
0.180545
0.722956
2.44772
3.33211
3.60921
3.55336
3.32933
3.02377
2.68068
2.32217
1.95917
1.59685
1.23729
0.880946
0.527355
0.175576
1.38876
2.37628
3.00417
3.2566
3.2502
3.08774
2.83683
2.53784
2.21385
1.87779
1.53671
1.19425
0.852087
0.510764
0.170163
1.84676
2.55443
2.9368
3.0836
3.05528
2.90745
2.68322
2.41229
2.11386
1.79984
1.47747
1.15094
0.822609
0.493648
0.164552
2.92739
2.95833
3.03286
3.03209
2.94321
2.78011
2.56195
2.30578
2.02461
1.72764
1.42105
1.10885
0.793532
0.476604
0.158938
3.48744
3.33178
3.18105
3.04166
2.88257
2.69091
2.46701
2.21656
1.94628
1.66206
1.36848
1.06887
0.76554
0.460053
0.153464
4.43433
3.70164
3.32122
3.06478
2.84443
2.62399
2.39041
2.14105
1.87757
1.60292
1.32004
1.03143
0.739016
0.444249
0.148216
4.59723
3.82669
3.37516
3.06273
2.80624
2.56612
2.32468
2.07528
1.81657
1.54944
1.27554
0.996589
0.714097
0.429308
0.143239
4.22863
3.73006
3.33239
3.02172
2.75658
2.50907
2.2644
2.01592
1.76135
1.5006
1.2345
0.964173
0.690747
0.415239
0.138542
4.00646
3.56322
3.22908
2.949
2.69457
2.44996
2.20672
1.96072
1.71038
1.45544
1.19635
0.933874
0.668817
0.40198
0.134107
3.58374
3.32049
3.08813
2.85838
2.62565
2.38982
2.15087
1.9085
1.66254
1.4131
1.16053
0.905333
0.6481
0.389428
0.129903