/*--------------------------------*- C++ -*----------------------------------*\
| =========                 |                                                 |
| \\      /  F ield         | OpenFOAM: The Open Source CFD Toolbox           |
|  \\    /   O peration     | Version:  5.x                                   |
|   \\  /    A nd           | Web:      www.OpenFOAM.org                      |
|    \\/     M anipulation  |                                                 |
\*---------------------------------------------------------------------------*/
FoamFile
{
    version     2.0;
    format      ascii;
    class       volScalarField;
    location    "1.8";
    object      T;
}
// * * * * * * * * * * * * * * * * * * * * * * * * * * * * * * * * * * * * * //

dimensions      [0 0 0 1 0 0 0];

internalField   nonuniform List<scalar> 
6300
(
322.746
322.238
321.73
321.224
320.718
320.215
319.714
319.215
318.719
318.226
317.738
317.253
316.772
316.297
315.826
322.746
322.237
321.729
321.222
320.717
320.213
319.711
319.212
318.716
318.223
317.733
317.248
316.768
316.292
315.821
322.745
322.236
321.727
321.22
320.713
320.209
319.706
319.206
318.709
318.215
317.725
317.24
316.758
316.282
315.81
322.745
322.234
321.725
321.216
320.708
320.202
319.699
319.197
318.699
318.204
317.713
317.226
316.744
316.267
315.794
322.744
322.232
321.721
321.21
320.701
320.194
319.689
319.186
318.686
318.19
317.697
317.209
316.725
316.246
315.773
322.743
322.229
321.716
321.204
320.693
320.183
319.676
319.171
318.669
318.171
317.676
317.186
316.701
316.221
315.746
322.742
322.226
321.711
321.196
320.683
320.171
319.661
319.154
318.649
318.149
317.652
317.159
316.672
316.19
315.714
322.741
322.222
321.704
321.187
320.671
320.156
319.644
319.134
318.626
318.122
317.622
317.127
316.637
316.153
315.675
322.739
322.218
321.697
321.177
320.658
320.14
319.624
319.11
318.599
318.092
317.588
317.09
316.597
316.11
315.63
322.738
322.213
321.689
321.166
320.643
320.122
319.602
319.085
318.57
318.058
317.55
317.047
316.55
316.06
315.578
322.736
322.208
321.68
321.153
320.627
320.102
319.578
319.056
318.536
318.019
317.506
316.998
316.496
316.002
315.517
322.734
322.203
321.671
321.14
320.61
320.081
319.553
319.026
318.5
317.978
317.458
316.943
316.434
315.934
315.446
322.732
322.197
321.662
321.127
320.593
320.059
319.526
318.993
318.462
317.933
317.406
316.882
316.363
315.854
315.36
322.73
322.191
321.652
321.113
320.574
320.036
319.498
318.96
318.422
317.886
317.35
316.815
316.283
315.759
315.251
322.728
322.185
321.642
321.099
320.556
320.013
319.469
318.926
318.382
317.838
317.293
316.746
316.197
315.646
315.104
315.4
315.016
314.636
314.261
313.889
313.522
313.16
312.803
312.45
312.102
311.76
311.423
311.091
310.765
310.445
310.131
309.822
309.519
309.222
308.931
308.646
308.366
308.091
307.822
307.558
307.299
307.045
306.795
306.55
306.309
306.071
305.837
305.606
305.378
305.153
304.93
304.709
304.491
304.274
304.059
303.844
303.631
303.419
303.207
302.996
302.784
302.573
302.361
302.149
301.936
301.722
301.506
301.289
301.07
300.85
300.626
300.401
300.172
299.941
299.706
299.468
299.226
298.981
298.731
298.477
298.219
297.956
297.689
297.417
297.14
296.858
296.571
296.279
295.982
295.68
295.372
295.06
294.742
294.419
294.091
293.758
293.419
293.076
292.727
292.374
292.015
291.652
291.284
290.911
290.534
315.394
315.01
314.63
314.254
313.883
313.516
313.153
312.796
312.443
312.095
311.752
311.415
311.083
310.757
310.437
310.123
309.814
309.511
309.214
308.923
308.638
308.358
308.084
307.815
307.551
307.293
307.039
306.789
306.544
306.303
306.066
305.832
305.602
305.374
305.149
304.927
304.707
304.488
304.272
304.057
303.843
303.63
303.418
303.207
302.996
302.785
302.573
302.362
302.15
301.937
301.723
301.508
301.292
301.073
300.853
300.63
300.405
300.177
299.946
299.711
299.473
299.232
298.986
298.737
298.483
298.225
297.963
297.695
297.423
297.147
296.865
296.578
296.286
295.989
295.687
295.38
295.067
294.749
294.427
294.098
293.765
293.426
293.083
292.734
292.381
292.022
291.659
291.29
290.917
290.54
315.383
314.999
314.618
314.242
313.87
313.503
313.14
312.782
312.428
312.08
311.737
311.399
311.067
310.741
310.42
310.106
309.797
309.495
309.198
308.907
308.622
308.342
308.069
307.8
307.537
307.279
307.026
306.777
306.533
306.292
306.056
305.823
305.593
305.366
305.142
304.92
304.701
304.483
304.268
304.053
303.84
303.628
303.417
303.206
302.995
302.785
302.574
302.364
302.152
301.94
301.727
301.513
301.297
301.079
300.859
300.637
300.413
300.185
299.955
299.721
299.484
299.243
298.998
298.749
298.495
298.238
297.976
297.709
297.437
297.161
296.879
296.592
296.301
296.004
295.702
295.394
295.082
294.764
294.441
294.113
293.78
293.441
293.097
292.748
292.395
292.036
291.672
291.303
290.93
290.552
315.367
314.982
314.601
314.224
313.851
313.483
313.12
312.761
312.407
312.058
311.714
311.376
311.043
310.716
310.396
310.081
309.772
309.469
309.173
308.882
308.598
308.319
308.046
307.778
307.516
307.259
307.006
306.759
306.515
306.276
306.041
305.809
305.58
305.354
305.131
304.911
304.692
304.476
304.261
304.048
303.836
303.625
303.414
303.204
302.995
302.785
302.576
302.366
302.155
301.944
301.732
301.519
301.304
301.087
300.869
300.648
300.424
300.198
299.968
299.736
299.499
299.259
299.015
298.767
298.514
298.257
297.995
297.729
297.458
297.181
296.9
296.614
296.322
296.026
295.724
295.417
295.104
294.786
294.463
294.135
293.801
293.463
293.119
292.77
292.415
292.056
291.692
291.323
290.95
290.571
315.344
314.959
314.577
314.2
313.826
313.457
313.093
312.733
312.378
312.028
311.683
311.344
311.011
310.683
310.362
310.047
309.738
309.436
309.139
308.849
308.565
308.287
308.015
307.748
307.487
307.231
306.98
306.734
306.492
306.255
306.021
305.79
305.563
305.339
305.117
304.898
304.681
304.466
304.253
304.041
303.83
303.62
303.411
303.202
302.994
302.786
302.577
302.369
302.16
301.95
301.739
301.527
301.314
301.099
300.882
300.662
300.44
300.215
299.987
299.755
299.52
299.281
299.038
298.791
298.539
298.283
298.022
297.756
297.485
297.21
296.929
296.643
296.351
296.055
295.753
295.446
295.134
294.816
294.493
294.164
293.83
293.491
293.147
292.798
292.444
292.084
291.719
291.35
290.975
290.596
315.317
314.93
314.548
314.169
313.795
313.425
313.059
312.698
312.342
311.99
311.644
311.304
310.97
310.641
310.32
310.004
309.695
309.393
309.097
308.807
308.524
308.247
307.976
307.711
307.451
307.197
306.948
306.703
306.463
306.228
305.996
305.767
305.542
305.32
305.1
304.883
304.667
304.454
304.242
304.032
303.823
303.614
303.407
303.2
302.993
302.786
302.579
302.372
302.165
301.957
301.748
301.538
301.326
301.113
300.898
300.68
300.46
300.237
300.01
299.78
299.546
299.309
299.067
298.821
298.57
298.315
298.055
297.79
297.52
297.245
296.964
296.679
296.388
296.092
295.79
295.483
295.171
294.853
294.53
294.201
293.867
293.528
293.183
292.834
292.479
292.119
291.754
291.384
291.008
290.628
315.283
314.896
314.512
314.133
313.758
313.387
313.019
312.657
312.298
311.945
311.597
311.255
310.92
310.591
310.268
309.953
309.644
309.341
309.045
308.756
308.474
308.198
307.928
307.665
307.407
307.155
306.908
306.666
306.428
306.195
305.965
305.739
305.517
305.297
305.079
304.864
304.651
304.439
304.23
304.021
303.814
303.608
303.402
303.197
302.992
302.787
302.582
302.376
302.171
301.965
301.758
301.55
301.341
301.13
300.917
300.702
300.484
300.263
300.038
299.81
299.578
299.342
299.102
298.857
298.608
298.354
298.095
297.831
297.562
297.287
297.008
296.723
296.432
296.136
295.835
295.528
295.216
294.898
294.574
294.245
293.911
293.571
293.226
292.876
292.521
292.161
291.795
291.424
291.048
290.667
315.243
314.855
314.471
314.091
313.715
313.343
312.974
312.608
312.248
311.892
311.542
311.198
310.861
310.53
310.207
309.891
309.582
309.28
308.985
308.696
308.415
308.14
307.872
307.611
307.356
307.106
306.862
306.622
306.387
306.157
305.93
305.707
305.487
305.27
305.055
304.842
304.631
304.423
304.215
304.009
303.805
303.6
303.397
303.193
302.99
302.787
302.584
302.381
302.178
301.974
301.77
301.565
301.358
301.15
300.94
300.727
300.512
300.294
300.072
299.846
299.616
299.382
299.143
298.9
298.652
298.399
298.142
297.879
297.611
297.338
297.059
296.774
296.484
296.188
295.887
295.58
295.268
294.95
294.627
294.298
293.963
293.622
293.277
292.926
292.571
292.21
291.844
291.473
291.096
290.713
315.197
314.809
314.424
314.044
313.667
313.293
312.922
312.554
312.19
311.831
311.477
311.131
310.791
310.46
310.136
309.82
309.511
309.209
308.914
308.626
308.346
308.073
307.807
307.548
307.296
307.049
306.808
306.572
306.34
306.113
305.89
305.67
305.454
305.24
305.028
304.818
304.61
304.403
304.199
303.996
303.794
303.592
303.391
303.19
302.988
302.787
302.586
302.385
302.185
301.984
301.783
301.581
301.378
301.173
300.966
300.757
300.545
300.329
300.11
299.887
299.66
299.428
299.191
298.949
298.703
298.452
298.196
297.935
297.669
297.396
297.117
296.833
296.543
296.247
295.947
295.641
295.329
295.011
294.688
294.358
294.022
293.681
293.335
292.984
292.628
292.267
291.901
291.529
291.151
290.767
315.144
314.756
314.372
313.992
313.615
313.24
312.866
312.495
312.126
311.761
311.403
311.053
310.711
310.378
310.054
309.738
309.429
309.127
308.832
308.545
308.266
307.995
307.732
307.477
307.228
306.985
306.747
306.515
306.287
306.064
305.845
305.63
305.417
305.206
304.997
304.79
304.585
304.382
304.181
303.981
303.782
303.584
303.385
303.186
302.987
302.787
302.588
302.39
302.192
301.995
301.798
301.6
301.4
301.199
300.996
300.79
300.582
300.37
300.155
299.935
299.71
299.48
299.245
299.005
298.761
298.512
298.258
297.999
297.734
297.463
297.184
296.9
296.61
296.314
296.014
295.709
295.398
295.081
294.757
294.426
294.089
293.746
293.399
293.048
292.692
292.332
291.966
291.594
291.215
290.829
315.083
314.696
314.314
313.936
313.561
313.185
312.808
312.431
312.055
311.683
311.318
310.962
310.618
310.284
309.961
309.646
309.338
309.036
308.74
308.453
308.174
307.906
307.646
307.395
307.151
306.913
306.679
306.451
306.227
306.009
305.795
305.585
305.377
305.17
304.965
304.76
304.558
304.357
304.16
303.965
303.77
303.576
303.38
303.183
302.985
302.787
302.589
302.393
302.198
302.005
301.813
301.62
301.425
301.228
301.028
300.827
300.623
300.416
300.206
299.99
299.768
299.54
299.306
299.067
298.825
298.578
298.328
298.072
297.809
297.539
297.26
296.975
296.684
296.388
296.089
295.786
295.477
295.16
294.836
294.503
294.163
293.818
293.469
293.117
292.764
292.405
292.041
291.669
291.289
290.901
315.012
314.627
314.25
313.878
313.506
313.131
312.751
312.365
311.979
311.595
311.219
310.857
310.509
310.176
309.856
309.545
309.238
308.935
308.637
308.348
308.069
307.803
307.548
307.304
307.067
306.834
306.605
306.379
306.16
305.947
305.74
305.537
305.335
305.133
304.93
304.728
304.527
304.329
304.136
303.947
303.759
303.569
303.377
303.181
302.984
302.785
302.588
302.393
302.203
302.015
301.829
301.643
301.453
301.26
301.064
300.866
300.668
300.468
300.264
300.054
299.835
299.608
299.374
299.135
298.894
298.65
298.405
298.154
297.895
297.626
297.346
297.058
296.764
296.467
296.169
295.87
295.566
295.251
294.926
294.59
294.245
293.894
293.542
293.191
292.841
292.487
292.125
291.754
291.374
290.985
314.927
314.549
314.177
313.818
313.458
313.084
312.7
312.302
311.899
311.493
311.103
310.729
310.379
310.048
309.739
309.438
309.132
308.827
308.521
308.227
307.946
307.683
307.435
307.203
306.978
306.75
306.524
306.299
306.083
305.875
305.68
305.488
305.294
305.097
304.895
304.693
304.49
304.295
304.107
303.927
303.749
303.566
303.378
303.183
302.984
302.781
302.583
302.389
302.202
302.021
301.846
301.67
301.486
301.297
301.101
300.907
300.715
300.526
300.333
300.128
299.914
299.686
299.45
299.206
298.965
298.725
298.489
298.249
297.995
297.727
297.444
297.15
296.847
296.548
296.252
295.962
295.668
295.358
295.033
294.689
294.336
293.972
293.614
293.263
292.923
292.581
292.223
291.854
291.47
291.082
314.821
314.462
314.086
313.759
313.431
313.052
312.672
312.243
311.826
311.369
310.965
310.565
310.222
309.89
309.61
309.336
309.026
308.721
308.387
308.09
307.796
307.543
307.299
307.092
306.891
306.665
306.444
306.204
305.993
305.788
305.613
305.444
305.255
305.068
304.861
304.66
304.443
304.252
304.065
303.905
303.748
303.569
303.39
303.189
302.99
302.77
302.572
302.372
302.195
302.019
301.864
301.708
301.526
301.342
301.135
300.947
300.756
300.588
300.417
300.217
300.012
299.775
299.538
299.274
299.034
298.792
298.58
298.364
298.112
297.853
297.555
297.257
296.925
296.625
296.323
296.06
295.795
295.484
295.167
294.803
294.441
294.039
293.678
293.318
293.007
292.696
292.336
291.976
291.574
291.197
314.67
314.397
313.927
313.701
313.479
313.021
312.712
312.17
311.809
311.168
310.82
310.322
310.047
309.659
309.471
309.287
308.913
308.657
308.198
307.947
307.588
307.389
307.109
306.973
306.84
306.573
306.391
306.069
305.895
305.655
305.54
305.43
305.213
305.067
304.817
304.65
304.359
304.202
303.984
303.878
303.776
303.574
303.435
303.192
303.026
302.729
302.564
302.323
302.185
301.986
301.885
301.782
301.57
301.42
301.144
300.989
300.766
300.655
300.543
300.315
300.153
299.865
299.666
299.305
299.106
298.817
298.676
298.533
298.24
298.034
297.666
297.413
296.955
296.703
296.34
296.163
295.985
295.621
295.367
294.914
294.605
294.047
293.741
293.303
293.092
292.881
292.451
292.158
291.64
291.349
290.114
289.65
289.181
288.706
288.226
287.741
287.253
286.761
286.266
285.768
285.268
284.766
284.262
283.758
283.253
290.12
289.656
289.186
288.71
288.23
287.745
287.257
286.764
286.269
285.77
285.27
284.767
284.263
283.758
283.253
290.132
289.667
289.196
288.72
288.239
287.753
287.264
286.77
286.274
285.775
285.273
284.77
284.265
283.76
283.253
290.15
289.684
289.212
288.735
288.252
287.765
287.274
286.78
286.282
285.781
285.279
284.774
284.268
283.761
283.254
290.174
289.707
289.233
288.754
288.27
287.781
287.289
286.792
286.293
285.79
285.286
284.78
284.272
283.764
283.255
290.204
289.735
289.26
288.779
288.293
287.802
287.306
286.808
286.306
285.801
285.295
284.787
284.277
283.767
283.256
290.241
289.77
289.293
288.809
288.32
287.826
287.328
286.826
286.321
285.814
285.305
284.795
284.283
283.77
283.257
290.285
289.812
289.331
288.844
288.351
287.854
287.352
286.847
286.34
285.83
285.317
284.804
284.289
283.774
283.258
290.337
289.86
289.376
288.885
288.388
287.886
287.38
286.872
286.36
285.846
285.331
284.814
284.297
283.778
283.259
290.397
289.916
289.427
288.931
288.429
287.922
287.412
286.898
286.383
285.865
285.346
284.826
284.305
283.783
283.261
290.466
289.981
289.485
288.983
288.474
287.962
287.446
286.927
286.407
285.885
285.362
284.838
284.313
283.788
283.263
290.546
290.054
289.551
289.04
288.524
288.004
287.482
286.958
286.433
285.906
285.379
284.851
284.322
283.794
283.265
290.64
290.139
289.625
289.103
288.578
288.05
287.521
286.99
286.46
285.928
285.397
284.864
284.332
283.799
283.266
290.754
290.237
289.705
289.17
288.633
288.096
287.56
287.023
286.487
285.951
285.414
284.878
284.342
283.805
283.268
290.902
290.348
289.79
289.237
288.688
288.142
287.599
287.056
286.514
285.973
285.432
284.892
284.351
283.811
283.27
322.727
322.18
321.633
321.086
320.539
319.991
319.444
318.895
318.346
317.795
317.242
316.684
316.119
315.536
314.906
322.725
322.175
321.625
321.074
320.524
319.973
319.421
318.868
318.314
317.758
317.198
316.634
316.06
315.469
314.845
322.723
322.17
321.617
321.063
320.509
319.954
319.399
318.842
318.284
317.723
317.159
316.59
316.013
315.424
314.821
322.722
322.165
321.609
321.052
320.494
319.936
319.377
318.817
318.255
317.691
317.123
316.551
315.973
315.389
314.801
322.72
322.161
321.601
321.041
320.48
319.919
319.357
318.793
318.228
317.66
317.09
316.517
315.939
315.357
314.768
322.719
322.156
321.594
321.03
320.467
319.902
319.337
318.771
318.202
317.632
317.06
316.485
315.908
315.329
314.751
322.717
322.152
321.586
321.02
320.454
319.887
319.318
318.749
318.178
317.606
317.031
316.455
315.878
315.302
314.732
322.716
322.148
321.58
321.011
320.442
319.872
319.301
318.729
318.155
317.58
317.004
316.426
315.848
315.269
314.691
322.715
322.144
321.573
321.002
320.43
319.857
319.284
318.709
318.133
317.556
316.978
316.398
315.817
315.237
314.662
322.713
322.14
321.567
320.993
320.418
319.843
319.267
318.691
318.112
317.533
316.952
316.37
315.786
315.201
314.609
322.712
322.137
321.561
320.984
320.408
319.83
319.252
318.673
318.092
317.511
316.928
316.343
315.757
315.169
314.58
322.711
322.133
321.555
320.976
320.397
319.818
319.237
318.656
318.073
317.49
316.905
316.318
315.729
315.137
314.538
322.71
322.13
321.549
320.969
320.388
319.806
319.223
318.64
318.055
317.47
316.883
316.294
315.703
315.11
314.515
322.709
322.127
321.544
320.961
320.378
319.794
319.21
318.624
318.038
317.451
316.862
316.272
315.679
315.084
314.483
322.708
322.124
321.539
320.954
320.369
319.783
319.197
318.61
318.022
317.432
316.842
316.25
315.658
315.063
314.468
322.707
322.121
321.534
320.948
320.361
319.773
319.185
318.596
318.006
317.415
316.823
316.23
315.637
315.043
314.453
322.706
322.118
321.53
320.941
320.353
319.763
319.173
318.583
317.991
317.399
316.805
316.211
315.616
315.02
314.424
322.705
322.115
321.526
320.935
320.345
319.754
319.162
318.57
317.977
317.383
316.788
316.192
315.596
314.999
314.404
322.704
322.113
321.521
320.93
320.337
319.745
319.152
318.558
317.963
317.368
316.771
316.174
315.575
314.975
314.37
322.704
322.111
321.517
320.924
320.33
319.736
319.142
318.546
317.95
317.353
316.756
316.157
315.557
314.955
314.352
322.703
322.108
321.514
320.919
320.324
319.728
319.132
318.535
317.938
317.34
316.741
316.141
315.539
314.936
314.327
322.702
322.106
321.51
320.914
320.317
319.72
319.123
318.525
317.926
317.327
316.727
316.125
315.523
314.92
314.315
322.701
322.104
321.507
320.909
320.311
319.713
319.114
318.515
317.915
317.314
316.713
316.111
315.508
314.906
314.305
322.701
322.102
321.504
320.905
320.306
319.706
319.106
318.505
317.904
317.303
316.7
316.097
315.493
314.89
314.285
322.7
322.1
321.501
320.9
320.3
319.699
319.098
318.496
317.894
317.291
316.688
316.084
315.479
314.874
314.272
322.7
322.099
321.498
320.896
320.295
319.693
319.091
318.488
317.885
317.281
316.676
316.07
315.464
314.858
314.25
322.699
322.097
321.495
320.893
320.29
319.687
319.084
318.48
317.875
317.27
316.664
316.058
315.451
314.843
314.236
322.699
322.095
321.492
320.889
320.285
319.681
319.077
318.472
317.867
317.261
316.654
316.046
315.437
314.827
314.212
322.698
322.094
321.49
320.886
320.281
319.676
319.071
318.465
317.859
317.251
316.644
316.035
315.425
314.813
314.201
322.698
322.093
321.488
320.882
320.277
319.671
319.065
318.458
317.851
317.243
316.634
316.025
315.414
314.801
314.185
322.697
322.091
321.486
320.88
320.273
319.667
319.06
318.452
317.844
317.235
316.626
316.015
315.404
314.791
314.178
322.697
322.09
321.484
320.877
320.27
319.662
319.055
318.446
317.837
317.228
316.618
316.007
315.395
314.783
314.172
322.696
322.089
321.482
320.874
320.266
319.658
319.05
318.441
317.831
317.221
316.61
315.999
315.386
314.774
314.16
322.696
322.088
321.48
320.872
320.264
319.655
319.046
318.436
317.826
317.215
316.603
315.991
315.378
314.765
314.152
322.696
322.087
321.479
320.87
320.261
319.651
319.042
318.431
317.821
317.209
316.597
315.984
315.371
314.756
314.141
322.695
322.086
321.477
320.868
320.258
319.648
319.038
318.427
317.816
317.204
316.591
315.978
315.364
314.749
314.134
322.695
322.086
321.476
320.866
320.256
319.646
319.035
318.424
317.812
317.199
316.586
315.972
315.357
314.741
314.123
322.695
322.085
321.475
320.865
320.254
319.643
319.032
318.42
317.808
317.195
316.582
315.967
315.352
314.735
314.117
322.695
322.085
321.474
320.864
320.253
319.641
319.03
318.418
317.805
317.192
316.578
315.963
315.347
314.73
314.111
322.695
322.084
321.473
320.862
320.251
319.64
319.028
318.415
317.802
317.189
316.574
315.959
315.343
314.726
314.108
322.695
322.084
321.473
320.862
320.25
319.638
319.026
318.414
317.8
317.186
316.572
315.957
315.34
314.723
314.106
322.694
322.083
321.472
320.861
320.249
319.637
319.025
318.412
317.799
317.185
316.57
315.954
315.338
314.721
314.103
322.694
322.083
321.472
320.861
320.249
319.637
319.024
318.411
317.798
317.184
316.569
315.953
315.336
314.719
314.101
322.694
322.083
321.472
320.86
320.249
319.636
319.024
318.411
317.797
317.183
316.568
315.952
315.336
314.718
314.1
322.694
322.083
321.472
320.86
320.249
319.636
319.024
318.411
317.797
317.183
316.568
315.952
315.335
314.718
314.099
322.694
322.083
321.472
320.861
320.249
319.637
319.024
318.411
317.798
317.183
316.568
315.953
315.336
314.718
314.1
322.695
322.083
321.472
320.861
320.249
319.637
319.025
318.412
317.799
317.184
316.569
315.954
315.337
314.72
314.101
322.695
322.084
321.473
320.862
320.25
319.638
319.026
318.413
317.8
317.186
316.571
315.956
315.339
314.722
314.104
322.695
322.084
321.473
320.863
320.251
319.64
319.028
318.415
317.802
317.188
316.574
315.958
315.342
314.724
314.106
322.695
322.085
321.474
320.864
320.253
319.642
319.03
318.418
317.805
317.191
316.577
315.961
315.345
314.727
314.108
322.695
322.085
321.475
320.865
320.254
319.644
319.032
318.42
317.808
317.195
316.58
315.965
315.349
314.732
314.113
322.695
322.086
321.476
320.867
320.256
319.646
319.035
318.424
317.812
317.199
316.585
315.97
315.355
314.737
314.118
322.696
322.087
321.478
320.868
320.259
319.649
319.038
318.427
317.816
317.203
316.59
315.976
315.361
314.745
314.127
322.696
322.088
321.479
320.87
320.261
319.652
319.042
318.432
317.821
317.209
316.596
315.983
315.368
314.752
314.134
322.696
322.089
321.481
320.873
320.264
319.656
319.046
318.437
317.826
317.215
316.603
315.99
315.376
314.762
314.149
322.697
322.09
321.483
320.875
320.268
319.66
319.051
318.442
317.832
317.222
316.61
315.998
315.385
314.771
314.157
322.697
322.091
321.484
320.878
320.271
319.664
319.056
318.448
317.839
317.229
316.618
316.007
315.394
314.782
314.17
322.697
322.092
321.487
320.881
320.275
319.669
319.062
318.454
317.846
317.237
316.627
316.016
315.404
314.791
314.177
322.698
322.093
321.489
320.884
320.279
319.674
319.068
318.461
317.854
317.246
316.637
316.026
315.415
314.801
314.184
322.698
322.095
321.492
320.888
320.284
319.679
319.074
318.469
317.862
317.255
316.647
316.038
315.427
314.814
314.2
322.699
322.097
321.494
320.892
320.289
319.685
319.081
318.477
317.872
317.265
316.658
316.05
315.44
314.828
314.212
322.699
322.098
321.497
320.896
320.294
319.692
319.089
318.485
317.881
317.276
316.67
316.063
315.455
314.845
314.234
322.7
322.1
321.5
320.9
320.299
319.698
319.097
318.495
317.892
317.288
316.684
316.078
315.471
314.863
314.25
322.701
322.102
321.503
320.905
320.305
319.706
319.105
318.505
317.903
317.301
316.697
316.093
315.488
314.883
314.281
322.701
322.104
321.507
320.909
320.311
319.713
319.114
318.515
317.915
317.314
316.712
316.109
315.506
314.902
314.298
322.702
322.106
321.511
320.914
320.318
319.721
319.124
318.526
317.927
317.328
316.727
316.126
315.524
314.922
314.324
322.703
322.109
321.514
320.92
320.325
319.73
319.134
318.537
317.94
317.342
316.743
316.143
315.542
314.94
314.336
322.704
322.111
321.518
320.925
320.332
319.738
319.144
318.549
317.954
317.357
316.76
316.161
315.561
314.958
314.35
322.705
322.114
321.522
320.931
320.34
319.747
319.155
318.562
317.968
317.373
316.777
316.18
315.582
314.981
314.378
322.705
322.116
321.527
320.937
320.347
319.757
319.166
318.575
317.983
317.39
316.796
316.201
315.604
315.004
314.398
322.706
322.119
321.531
320.944
320.356
319.767
319.178
318.589
317.998
317.407
316.815
316.223
315.628
315.032
314.436
322.707
322.122
321.536
320.95
320.364
319.777
319.19
318.603
318.015
317.426
316.836
316.245
315.654
315.061
314.462
322.708
322.125
321.541
320.957
320.373
319.788
319.203
318.617
318.031
317.444
316.857
316.269
315.681
315.093
314.51
322.709
322.128
321.546
320.964
320.382
319.799
319.216
318.633
318.048
317.464
316.878
316.293
315.707
315.122
314.536
322.71
322.131
321.551
320.971
320.391
319.811
319.23
318.648
318.066
317.484
316.9
316.317
315.733
315.151
314.575
322.711
322.134
321.557
320.979
320.401
319.822
319.244
318.664
318.084
317.504
316.923
316.341
315.759
315.176
314.594
322.712
322.137
321.562
320.987
320.411
319.835
319.258
318.681
318.103
317.524
316.945
316.366
315.785
315.201
314.612
322.714
322.141
321.568
320.995
320.421
319.847
319.273
318.698
318.122
317.546
316.969
316.391
315.812
315.231
314.651
322.715
322.144
321.574
321.003
320.432
319.86
319.288
318.715
318.142
317.568
316.993
316.417
315.84
315.262
314.677
322.716
322.148
321.58
321.011
320.443
319.873
319.303
318.733
318.162
317.59
317.017
316.444
315.87
315.296
314.723
322.717
322.152
321.586
321.02
320.454
319.887
319.32
318.751
318.183
317.613
317.043
316.472
315.901
315.329
314.754
322.719
322.156
321.593
321.029
320.466
319.901
319.336
318.77
318.204
317.636
317.068
316.5
315.932
315.366
314.807
322.72
322.16
321.599
321.039
320.478
319.916
319.353
318.79
318.226
317.661
317.094
316.528
315.961
315.397
314.835
322.721
322.164
321.606
321.049
320.49
319.931
319.371
318.811
318.249
317.685
317.121
316.555
315.99
315.426
314.871
322.723
322.168
321.614
321.059
320.503
319.947
319.39
318.832
318.272
317.711
317.148
316.583
316.017
315.451
314.887
322.724
322.173
321.621
321.069
320.517
319.963
319.409
318.854
318.297
317.738
317.176
316.612
316.044
315.473
314.899
322.726
322.177
321.629
321.08
320.531
319.981
319.43
318.877
318.323
317.767
317.207
316.643
316.073
315.497
314.918
322.727
322.182
321.637
321.091
320.545
319.999
319.451
318.902
318.351
317.798
317.241
316.678
316.107
315.524
314.928
322.729
322.187
321.645
321.103
320.56
320.017
319.473
318.928
318.381
317.832
317.279
316.719
316.149
315.559
314.93
322.731
322.192
321.653
321.115
320.576
320.036
319.496
318.955
318.413
317.869
317.321
316.768
316.205
315.622
314.986
291.097
290.454
289.864
289.295
288.736
288.183
287.633
287.085
286.539
285.993
285.449
284.904
284.36
283.816
283.272
291.149
290.512
289.916
289.341
288.776
288.217
287.663
287.111
286.56
286.011
285.463
284.915
284.368
283.821
283.274
291.143
290.542
289.955
289.378
288.811
288.249
287.691
287.135
286.581
286.029
285.477
284.926
284.375
283.825
283.275
291.147
290.564
289.984
289.41
288.842
288.278
287.717
287.158
286.601
286.045
285.491
284.937
284.383
283.83
283.277
291.155
290.583
290.01
289.439
288.87
288.304
287.741
287.18
286.62
286.061
285.504
284.947
284.39
283.834
283.278
291.17
290.604
290.034
289.465
288.896
288.329
287.764
287.2
286.638
286.077
285.516
284.956
284.397
283.838
283.279
291.186
290.626
290.059
289.49
288.921
288.353
287.786
287.22
286.655
286.091
285.528
284.966
284.404
283.842
283.281
291.219
290.653
290.085
289.515
288.945
288.376
287.807
287.239
286.672
286.105
285.54
284.975
284.41
283.846
283.282
291.244
290.681
290.112
289.541
288.969
288.398
287.827
287.257
286.688
286.119
285.551
284.984
284.417
283.85
283.283
291.293
290.715
290.14
289.566
288.993
288.419
287.846
287.274
286.703
286.132
285.562
284.992
284.423
283.853
283.284
291.32
290.745
290.168
289.592
289.016
288.44
287.866
287.291
286.718
286.145
285.572
285
284.429
283.857
283.286
291.363
290.777
290.196
289.617
289.039
288.461
287.884
287.308
286.732
286.157
285.582
285.008
284.434
283.86
283.287
291.387
290.805
290.222
289.641
289.061
288.481
287.902
287.324
286.746
286.169
285.592
285.016
284.44
283.864
283.288
291.423
290.832
290.247
289.664
289.082
288.501
287.92
287.34
286.76
286.181
285.602
285.023
284.445
283.867
283.289
291.44
290.855
290.271
289.687
289.103
288.52
287.937
287.355
286.773
286.192
285.611
285.03
284.45
283.87
283.29
291.457
290.879
290.295
289.709
289.124
288.539
287.954
287.37
286.786
286.203
285.62
285.037
284.455
283.873
283.291
291.493
290.906
290.319
289.732
289.144
288.557
287.971
287.384
286.799
286.214
285.629
285.044
284.46
283.876
283.292
291.518
290.933
290.344
289.754
289.164
288.575
287.987
287.399
286.811
286.224
285.637
285.051
284.465
283.879
283.293
291.563
290.963
290.369
289.776
289.184
288.593
288.002
287.412
286.823
286.234
285.645
285.057
284.469
283.881
283.294
291.587
290.99
290.393
289.797
289.203
288.61
288.017
287.426
286.834
286.244
285.653
285.063
284.474
283.884
283.295
291.622
291.016
290.416
289.818
289.222
288.626
288.032
287.438
286.845
286.253
285.661
285.069
284.478
283.887
283.296
291.641
291.038
290.437
289.837
289.239
288.642
288.046
287.451
286.856
286.262
285.668
285.075
284.482
283.889
283.296
291.668
291.06
290.456
289.855
289.256
288.657
288.06
287.463
286.866
286.271
285.675
285.08
284.486
283.891
283.297
291.681
291.077
290.474
289.872
289.271
288.672
288.072
287.474
286.876
286.279
285.682
285.086
284.49
283.894
283.298
291.693
291.094
290.491
289.889
289.287
288.685
288.085
287.485
286.886
286.287
285.689
285.091
284.493
283.896
283.299
291.718
291.113
290.508
289.904
289.301
288.698
288.096
287.495
286.895
286.294
285.695
285.096
284.497
283.898
283.299
291.734
291.131
290.525
289.92
289.315
288.711
288.108
287.505
286.903
286.302
285.701
285.1
284.5
283.9
283.3
291.763
291.151
290.542
289.934
289.328
288.723
288.118
287.514
286.911
286.309
285.706
285.105
284.503
283.902
283.301
291.779
291.168
290.557
289.948
289.341
288.734
288.128
287.523
286.919
286.315
285.712
285.109
284.506
283.904
283.301
291.8
291.184
290.572
289.961
289.353
288.745
288.138
287.532
286.926
286.321
285.717
285.113
284.509
283.905
283.302
291.812
291.197
290.585
289.973
289.363
288.755
288.147
287.54
286.933
286.327
285.722
285.116
284.511
283.907
283.302
291.827
291.21
290.596
289.984
289.374
288.764
288.155
287.547
286.939
286.332
285.726
285.12
284.514
283.908
283.303
291.834
291.22
290.607
289.994
289.383
288.772
288.163
287.554
286.945
286.338
285.73
285.123
284.516
283.91
283.303
291.841
291.229
290.616
290.004
289.392
288.78
288.17
287.56
286.951
286.342
285.734
285.126
284.518
283.911
283.304
291.854
291.239
290.625
290.012
289.4
288.788
288.177
287.566
286.956
286.347
285.738
285.129
284.52
283.912
283.304
291.862
291.249
290.634
290.02
289.407
288.795
288.183
287.571
286.961
286.351
285.741
285.131
284.522
283.913
283.304
291.876
291.258
290.642
290.028
289.414
288.801
288.188
287.576