/*--------------------------------*- C++ -*----------------------------------*\
| =========                 |                                                 |
| \\      /  F ield         | OpenFOAM: The Open Source CFD Toolbox           |
|  \\    /   O peration     | Version:  5.x                                   |
|   \\  /    A nd           | Web:      www.OpenFOAM.org                      |
|    \\/     M anipulation  |                                                 |
\*---------------------------------------------------------------------------*/
FoamFile
{
    version     2.0;
    format      ascii;
    class       volScalarField;
    location    "2.9";
    object      gradTy;
}
// * * * * * * * * * * * * * * * * * * * * * * * * * * * * * * * * * * * * * //

dimensions      [0 -1 0 1 0 0 0];

internalField   nonuniform List<scalar> 
6300
(
32275.9
32227.9
32179.8
32131.8
32083.9
32036.1
31988.5
31941
31893.7
31846.6
31799.8
31753.2
31707
31661
31615.4
-0.0189053
-0.0567929
-0.0948981
-0.133319
-0.172086
-0.211131
-0.25027
-0.28918
-0.327401
-0.364363
-0.399432
-0.432015
-0.461685
-0.488335
-0.512308
-0.031424
-0.0944142
-0.157812
-0.221812
-0.286496
-0.351777
-0.417364
-0.48272
-0.547056
-0.609353
-0.668455
-0.723226
-0.77279
-0.816823
-0.855826
-0.0437975
-0.131625
-0.220119
-0.309619
-0.400302
-0.492111
-0.58468
-0.677271
-0.768735
-0.857524
-0.941793
-1.01962
-1.0894
-1.15031
-1.20285
-0.0559364
-0.168163
-0.281411
-0.396231
-0.512969
-0.631667
-0.751952
-0.872924
-0.993062
-1.11018
-1.22153
-1.32404
-1.41485
-1.49213
-1.55602
-0.0677217
-0.203677
-0.341125
-0.480915
-0.623662
-0.769618
-0.918515
-1.06939
-1.22037
-1.36859
-1.51008
-1.6401
-1.75377
-1.84729
-1.91963
-0.0789934
-0.237692
-0.398485
-0.562627
-0.731127
-0.904603
-1.08308
-1.2657
-1.45042
-1.63367
-1.81005
-1.97247
-2.11279
-2.22358
-2.30097
-0.0895504
-0.269604
-0.452485
-0.639961
-0.83359
-1.03456
-1.24345
-1.45986
-1.68191
-1.90555
-2.12394
-2.32688
-2.50129
-2.6332
-2.71256
-0.0991512
-0.29868
-0.501874
-0.71112
-0.928683
-1.15657
-1.39627
-1.64835
-1.91173
-2.18265
-2.4532
-2.70979
-2.93222
-3.09533
-3.17603
-0.107522
-0.324081
-0.545193
-0.773938
-1.01342
-1.26672
-1.53667
-1.82549
-2.13397
-2.46005
-2.79637
-3.1268
-3.42241
-3.63984
-3.72924
-0.114377
-0.344916
-0.580862
-0.825989
-1.08432
-1.36017
-1.65814
-1.98291
-2.33857
-2.72714
-3.14537
-3.57859
-3.99073
-4.31232
-4.43992
-0.119442
-0.360332
-0.607327
-0.864811
-1.13765
-1.43145
-1.75277
-2.10938
-2.51019
-2.96453
-3.47932
-4.05142
-4.64952
-5.17871
-5.43544
-0.122498
-0.369628
-0.623282
-0.888242
-1.16999
-1.47515
-1.81206
-2.19158
-2.62823
-3.14141
-3.75591
-4.49818
-5.37713
-6.3174
-6.97931
-0.123415
-0.372384
-0.627908
-0.894846
-1.17888
-1.48706
-1.82867
-2.21659
-2.66967
-3.21691
-3.90465
-4.80819
-6.04327
-7.73425
-9.67465
-0.122188
-0.368569
-0.621095
-0.884317
-1.16357
-1.46549
-1.79892
-2.17637
-2.61691
-3.15185
-3.83753
-4.78652
-6.25329
-8.9014
-14.7545
31573.8
31536.3
31499.1
31462.1
31425.4
31389
31352.9
31317
31281.5
31246.4
31211.6
31177.1
31143
31109.3
31076
31043.2
31010.7
30978.6
30947
30915.8
30884.9
30854.5
30824.5
30794.9
30765.6
30736.7
30708.1
30679.8
30651.8
30624.1
30596.7
30569.5
30542.5
30515.7
30489.1
30462.7
30436.4
30410.3
30384.2
30358.3
30332.5
30306.7
30281.1
30255.5
30229.9
30204.4
30178.9
30153.4
30128
30102.5
30077
30051.6
30026
30000.5
29974.8
29949.1
29923.3
29897.3
29871.3
29845.1
29818.7
29792.2
29765.5
29738.6
29711.5
29684.3
29656.8
29629
29601.1
29572.9
29544.5
29515.9
29487
29457.9
29428.5
29398.8
29368.9
29338.7
29308.3
29277.5
29246.6
29215.3
29183.8
29151.9
29119.8
29087.5
29054.8
29021.9
28988.7
28955.2
-0.532615
-0.550647
-0.569143
-0.589005
-0.610994
-0.635589
-0.662871
-0.692481
-0.723641
-0.755261
-0.786089
-0.814872
-0.840505
-0.862119
-0.879106
-0.891086
-0.897846
-0.899268
-0.89529
-0.885898
-0.871152
-0.851223
-0.82642
-0.797193
-0.764118
-0.727849
-0.689081
-0.648519
-0.606855
-0.564758
-0.522864
-0.481746
-0.441892
-0.403671
-0.367321
-0.33296
-0.300611
-0.270249
-0.241825
-0.215286
-0.190552
-0.167479
-0.145818
-0.125186
-0.105071
-0.0848727
-0.0639784
-0.0418419
-0.0180604
0.00757721
0.0350791
0.0642712
0.0948391
0.126376
0.158421
0.19049
0.222095
0.252768
0.282097
0.309755
0.335537
0.35937
0.381299
0.401444
0.419955
0.436962
0.452556
0.466788
0.479705
0.491382
0.501947
0.511576
0.520471
0.528812
0.536719
0.544239
0.551354
0.558017
0.564193
0.569881
0.575108
0.579884
0.584152
0.587725
0.590264
0.591281
0.590195
0.586401
0.579351
0.568621
-0.888336
-0.916969
-0.946364
-0.978257
-1.01415
-1.05501
-1.10106
-1.15165
-1.20532
-1.26002
-1.3134
-1.36314
-1.40726
-1.44426
-1.47319
-1.49351
-1.50498
-1.50746
-1.50086
-1.48512
-1.46028
-1.42658
-1.38453
-1.33492
-1.27876
-1.21721
-1.15148
-1.08279
-1.01229
-0.941128
-0.8704
-0.801108
-0.734109
-0.670039
-0.609282
-0.551986
-0.498129
-0.447614
-0.400346
-0.356261
-0.315284
-0.277247
-0.241774
-0.208218
-0.175661
-0.14299
-0.10905
-0.0728107
-0.0335263
0.00917544
0.0552749
0.104415
0.155999
0.209283
0.263455
0.317673
0.371083
0.422857
0.472248
0.518666
0.561749
0.601399
0.63775
0.671087
0.701729
0.72993
0.755832
0.779477
0.800885
0.820146
0.837474
0.85321
0.867755
0.881469
0.894582
0.90715
0.919088
0.930257
0.940564
0.950018
0.958726
0.966801
0.974232
0.980755
0.985787
0.988437
0.987614
0.982178
0.971107
0.953637
-1.24535
-1.28216
-1.31995
-1.36171
-1.4101
-1.46692
-1.53267
-1.60632
-1.68546
-1.76663
-1.84588
-1.91943
-1.98418
-2.03796
-2.07959
-2.10862
-2.12497
-2.12864
-2.1195
-2.09735
-2.06207
-2.01386
-1.95343
-1.88196
-1.80105
-1.71248
-1.61806
-1.51954
-1.41856
-1.31676
-1.21575
-1.11705
-1.02199
-0.931515
-0.846136
-0.765934
-0.690708
-0.620178
-0.554158
-0.49263
-0.435658
-0.383194
-0.33484
-0.289688
-0.24629
-0.202813
-0.157308
-0.108043
-0.0537929
0.00599956
0.0712087
0.141158
0.214822
0.291022
0.368535
0.446126
0.522533
0.596484
0.666785
0.73248
0.793006
0.848277
0.898639
0.944704
0.987107
1.0263
1.06244
1.09547
1.12524
1.15177
1.17537
1.19663
1.21631
1.23506
1.2533
1.27103
1.28799
1.3038
1.31822
1.33129
1.34331
1.3547
1.36567
1.37598
1.38478
1.39064
1.39172
1.38612
1.37214
1.34851
-1.60495
-1.64588
-1.68776
-1.73555
-1.79386
-1.86593
-1.95282
-2.05303
-2.16264
-2.27593
-2.38651
-2.48836
-2.57685
-2.64912
-2.70411
-2.74194
-2.76321
-2.76825
-2.75688
-2.72849
-2.68247
-2.61878
-2.53825
-2.44265
-2.33441
-2.21622
-2.09062
-1.95989
-1.82611
-1.69136
-1.55787
-1.42787
-1.30338
-1.18579
-1.07569
-0.972879
-0.876699
-0.786431
-0.701702
-0.622651
-0.549768
-0.483462
-0.423553
-0.368896
-0.317314
-0.265849
-0.211285
-0.150775
-0.0823718
-0.00532074
0.0799606
0.172182
0.269617
0.370482
0.473106
0.575879
0.677107
0.774943
0.867526
0.953302
1.03139
1.10178
1.16527
1.22314
1.27665
1.3266
1.37309
1.41569
1.4538
1.48717
1.51618
1.5419
1.56573
1.58897
1.6123
1.6356
1.65813
1.67894
1.69742
1.71366
1.72842
1.74282
1.75769
1.77304
1.78769
1.79939
1.80514
1.80185
1.7868
1.75803
-1.96962
-2.0082
-2.04698
-2.09418
-2.15775
-2.24351
-2.35372
-2.48615
-2.63441
-2.78908
-2.93961
-3.07647
-3.19277
-3.2851
-3.35324
-3.39904
-3.42471
-3.43142
-3.4187
-3.38491
-3.32823
-3.24785
-3.1447
-3.02146
-2.88203
-2.73053
-2.57047
-2.40455
-2.23496
-2.06408
-1.89486
-1.7307
-1.57477
-1.42922
-1.29466
-1.17021
-1.05412
-0.94465
-0.841016
-0.743742
-0.654361
-0.574481
-0.504667
-0.443652
-0.388148
-0.33333
-0.273814
-0.204867
-0.123402
-0.0284973
0.0787079
0.195681
0.31945
0.447381
0.577427
0.707819
0.836523
0.960921
1.07802
1.18514
1.2808
1.36514
1.43992
1.50778
1.57126
1.6318
1.68927
1.74229
1.78911
1.82874
1.86165
1.88978
1.91593
1.94265
1.97123
2.0012
2.03066
2.05734
2.07976
2.09806
2.11398
2.13017
2.14894
2.171
2.19479
2.21661
2.23151
2.23443
2.22113
2.18867
-2.34415
-2.37017
-2.39401
-2.42923
-2.48961
-2.58587
-2.72254
-2.89643
-3.09691
-3.30811
-3.51234
-3.69412
-3.84316
-3.95582
-4.03448
-4.08506
-4.11346
-4.12247
-4.1108
-4.07421
-4.00804
-3.90966
-3.77997
-3.62349
-3.44695
-3.25708
-3.0587
-2.8544
-2.64558
-2.43432
-2.22448
-2.02157
-1.83111
-1.65673
-1.49898
-1.35543
-1.2219
-1.09437
-0.971073
-0.853366
-0.745175
-0.650909
-0.573015
-0.510377
-0.457905
-0.407481
-0.34983
-0.276891
-0.183687
-0.0692911
0.0634835
0.209489
0.363378
0.521323
0.681335
0.842274
1.00222
1.1575
1.30295
1.43358
1.54657
1.64237
1.72462
1.79882
1.87018
1.94148
2.01195
2.07789
2.13484
2.18007
2.21406
2.2406
2.26538
2.29372
2.32823
2.36759
2.40728
2.44193
2.46812
2.48594
2.49922
2.51388
2.5355
2.56652
2.60478
2.64387
2.67519
2.69043
2.6831
2.64899
-2.73771
-2.73525
-2.72462
-2.72802
-2.76982
-2.87005
-3.03777
-3.26842
-3.54397
-3.83715
-4.11738
-4.35888
-4.54588
-4.67548
-4.7561
-4.80296
-4.83007
-4.84323
-4.83871
-4.80602
-4.73414
-4.61642
-4.45372
-4.25427
-4.03092
-3.79572
-3.5553
-3.31058
-3.05955
-2.80231
-2.54392
-2.29429
-2.06409
-1.86003
-1.68259
-1.52597
-1.38074
-1.23772
-1.09277
-0.948968
-0.815605
-0.703412
-0.619038
-0.562096
-0.524337
-0.49165
-0.44746
-0.37768
-0.274057
-0.136102
0.0296665
0.212415
0.401943
0.592775
0.784396
0.978649
1.17516
1.36875
1.54973
1.70795
1.83764
1.93963
2.02145
2.09446
2.16975
2.25291
2.34169
2.42699
2.49801
2.54814
2.57776
2.5945
2.61023
2.63647
2.67876
2.73403
2.79166
2.83925
2.869
2.88088
2.88294
2.88806
2.90899
2.95206
3.01402
3.08273
3.1424
3.17933
3.18398
3.15097
-3.16769
-3.1121
-3.03501
-2.97154
-2.9659
-3.05706
-3.26245
-3.5758
-3.96569
-4.38485
-4.77822
-5.10212
-5.33127
-5.46563
-5.52627
-5.54927
-5.56668
-5.58936
-5.60707
-5.59413
-5.52612
-5.38778
-5.18023
-4.91925
-4.63171
-4.34161
-4.05783
-3.77553
-3.48212
-3.17161
-2.8504
-2.53861
-2.25898
-2.02453
-1.83574
-1.6796
-1.53586
-1.38326
-1.21223
-1.02889
-0.854874
-0.715142
-0.624813
-0.585413
-0.582668
-0.591554
-0.581085
-0.526314
-0.412939
-0.242005
-0.0276047
0.206607
0.439688
0.664171
0.884766
1.11289
1.35343
1.59932
1.83045
2.0246
2.1698
2.26718
2.33219
2.38808
2.45924
2.5575
2.67773
2.79791
2.89253
2.94702
2.96127
2.95114
2.94119
2.95737
3.01187
3.09829
3.19172
3.26345
3.29681
3.29113
3.2634
3.24058
3.25171
3.31144
3.41458
3.53559
3.64329
3.71559
3.73993
3.71166
-3.66679
-3.51985
-3.32577
-3.13174
-3.02258
-3.07956
-3.33167
-3.77298
-4.34529
-4.96972
-5.53914
-5.98183
-6.25313
-6.36195
-6.35062
-6.30359
-6.29564
-6.34255
-6.41949
-6.4614
-6.41926
-6.25863
-5.98348
-5.62229
-5.23596
-4.87813
-4.55792
-4.25616
-3.92898
-3.55595
-3.1429
-2.73619
-2.38838
-2.12275
-1.94135
-1.81482
-1.70315
-1.55472
-1.34877
-1.09473
-0.844049
-0.654967
-0.556441
-0.555094
-0.623373
-0.718421
-0.777576
-0.758379
-0.633713
-0.409466
-0.112329
0.203545
0.490972
0.742365
0.975521
1.23052
1.52524
1.85245
2.16572
2.41308
2.57219
2.64271
2.65748
2.66111
2.71111
2.83188
3.01528
3.2071
3.3463
3.40529
3.38135
3.309
3.236
3.22454
3.30047
3.4539
3.62445
3.7443
3.78225
3.73448
3.63814
3.54554
3.52574
3.6096
3.79064
4.0088
4.19629
4.32196
4.37263
4.35491
-4.29567
-3.99539
-3.61633
-3.1695
-2.83979
-2.82081
-3.12818
-3.78128
-4.64958
-5.63361
-6.48232
-7.10814
-7.40878
-7.43112
-7.22621
-7.00149
-6.94542
-7.05235
-7.28218
-7.44959
-7.48291
-7.29429
-6.91056
-6.36148
-5.79907
-5.36044
-5.03141
-4.77332
-4.44186
-3.99789
-3.42627
-2.849
-2.39948
-2.09972
-1.96801
-1.9287
-1.92348
-1.80915
-1.55475
-1.15594
-0.744771
-0.464663
-0.348405
-0.424797
-0.625845
-0.897318
-1.08729
-1.14275
-0.998369
-0.682402
-0.224577
0.240895
0.593578
0.846247
1.03426
1.29034
1.64966
2.12502
2.59524
2.92795
3.10146
3.09783
2.99812
2.86667
2.86034
3.01533
3.33997
3.69128
3.91483
3.98223
3.87039
3.66705
3.44143
3.36515
3.47675
3.78415
4.12949
4.34241
4.39044
4.24709
4.00686
3.74503
3.64993
3.76722
4.1127
4.52566
4.83778
5.0358
5.10323
5.1125
-5.16792
-4.58414
-4.00419
-3.03822
-2.20907
-2.09155
-2.42624
-3.47908
-4.78662
-6.49176
-7.7459
-8.70216
-8.96469
-8.82706
-8.12989
-7.45616
-7.36017
-7.58489
-8.23451
-8.63069
-8.86601
-8.61084
-8.07574
-7.11997
-6.1841
-5.68515
-5.40304
-5.39648
-5.11717
-4.62414
-3.71836
-2.77855
-2.1957
-1.83558
-1.86257
-1.99456
-2.30208
-2.26654
-1.97007
-1.23645
-0.458409
-0.0402033
0.135137
-0.116989
-0.529024
-1.19581
-1.59308
-1.8174
-1.61278
-1.16242
-0.350786
0.437611
0.837027
1.03997
0.991637
1.19808
1.6035
2.4014
3.2191
3.66832
3.88198
3.68742
3.38057
2.88806
2.77323
2.95041
3.62212
4.35526
4.70405
4.81309
4.48697
4.05299
3.42764
3.23106
3.36692
4.05566
4.82119
5.17398
5.2703
4.89536
4.40287
3.70072
3.46464
3.59271
4.33415
5.18439
5.64035
5.93461
5.91454
6.03147
-6.53026
-5.16702
-4.94766
-2.7098
-0.553556
-0.71106
-0.690161
-2.81005
-4.35111
-7.99933
-9.43838
-11.2951
-11.0968
-11.0286
-8.99975
-7.07876
-7.31299
-7.50552
-9.5517
-10.0434
-10.9553
-10.3304
-9.84649
-7.84959
-5.93974
-5.69736
-5.37769
-6.41221
-6.1
-5.84451
-4.05912
-2.19369
-1.67081
-1.01365
-1.60563
-1.80731
-3.17435
-3.09932
-3.01447
-1.38044
0.346657
0.734531
1.23473
0.421573
-0.0648938
-1.88192
-2.34743
-3.10915
-2.58048
-2.16199
-0.442842
1.1952
1.36414
1.59624
0.58284
0.819997
0.992949
2.65005
4.37444
4.74875
5.25119
4.43952
4.0312
2.36643
2.26648
2.17427
3.81669
5.57362
5.83941
6.27149
5.25983
4.71543
2.79738
2.61919
2.46192
4.21751
6.10811
6.37576
6.8297
5.71385
5.10173
2.98624
2.75589
2.53585
4.39976
6.41165
6.67654
7.28689
6.52946
7.23612
-9.26747
-4.10256
-8.79757
-2.26364
4.43388
0.41262
4.12874
-2.9745
-0.881226
-12.688
-10.5293
-16.8475
-13.0412
-16.0537
-9.7141
-3.59778
-7.32572
-4.75675
-13.1073
-10.8506
-15.2577
-11.8466
-13.7959
-8.45365
-3.29402
-5.82065
-3.40205
-9.36699
-7.00091
-9.26767
-4.51483
0.324746
-1.33894
1.60742
-1.91037
0.0584262
-6.12288
-3.94584
-6.28935
-1.65798
3.08066
1.34801
4.2261
0.490173
2.31576
-4.51375
-2.67472
-6.25861
-3.38894
-5.03398
-0.417461
4.06895
1.80096
3.94674
-1.62609
0.53509
-1.75409
2.80256
7.47464
5.64548
8.51352
4.61159
6.49191
-0.407725
1.74941
-1.09892
3.84722
8.94006
6.73618
9.80973
5.36071
7.35679
-0.337366
1.97809
-1.1967
4.18582
9.73297
7.31016
10.6504
5.80789
7.96634
-0.441933
2.0332
-1.52098
4.2531
10.1554
7.21607
10.6096
5.03699
9.40813
-18.9092
11.1604
-28.8171
-2.05281
24.8567
-9.60517
24.5279
-16.3815
22.6052
-37.4868
0.586917
-36.9786
-5.16643
-34.5453
-10.1066
14.0593
-16.4057
13.7165
-31.9372
-2.06189
-30.818
-5.64369
-28.2449
-8.79468
10.4201
-13.065
10.646
-24.3184
-1.23048
-22.7991
-5.09549
12.2079
-7.64563
13.5368
-10.116
13.6602
-21.1077
1.71696
-19.6085
-2.0904
15.1329
-4.67851
16.7412
-7.45041
17.1592
-19.6291
4.80627
-18.7021
2.30289
-16.9237
-0.205738
16.668
-4.11918
17.411
-14.9732
6.65753
-14.3604
2.78756
19.9353
-0.22314
21.5233
-3.54421
21.5944
-16.2251
8.43875
-15.5977
3.66499
22.8122
0.0318947
24.1789
-3.82094
23.9505
-17.8875
9.24136
-17.1793
3.91552
24.8331
-0.0558011
26.2529
-4.18097
26.0456
-19.5435
9.99135
-19.0117
3.92052
26.63
-1.36478
26.8422
-10.7756
17.7374
28918
28877.1
28835.9
28794.3
28752.4
28710.2
28667.7
28625
28582.1
28539
28495.7
28452.4
28408.9
28365.4
28321.8
0.552503
0.529267
0.500739
0.467615
0.430809
0.39131
0.350064
0.307895
0.265455
0.223207
0.181433
0.140257
0.0996752
0.0595867
0.0198237
0.926895
0.88781
0.839522
0.783335
0.720917
0.654047
0.584399
0.513403
0.442164
0.371447
0.301695
0.233084
0.165572
0.0989543
0.0329173
1.31117
1.25554
1.18619
1.10527
1.01546
0.919543
0.820071
0.719148
0.618352
0.518722
0.42082
0.324816
0.230576
0.137743
0.0458107
1.71019
1.63683
1.54428
1.43596
1.31598
1.18849
1.0571
0.9247
0.793322
0.664232
0.538024
0.414774
0.294169
0.175629
0.0583943
2.13033
2.03726
1.91809
1.77823
1.62395
1.46123
1.29507
1.12916
0.965957
0.806819
0.652239
0.502062
0.355685
0.212205
0.0705308
2.5799
2.46381
2.31258
2.13488
1.94027
1.73734
1.53269
1.33084
1.13447
0.944804
0.762014
0.585524
0.414287
0.246966
0.0820518
3.07039
2.92569
2.73366
2.50854
2.26497
2.01509
1.76738
1.52691
1.29618
1.07586
0.865448
0.663702
0.468953
0.279308
0.0927578
3.61821
3.43537
3.18823
2.90098
2.59623
2.29078
1.99477
1.71313
1.44736
1.19692
0.96016
0.734843
0.518491
0.308541
0.102423
4.24759
4.00993
3.68345
3.31144
2.92879
2.55744
2.20795
1.88346
1.58312
1.30422
1.04335
0.796968
0.561593
0.333923
0.110807
4.99712
4.67303
4.224
3.73249
3.2505
2.80278
2.39646
2.02974
1.6974
1.39341
1.112
0.848026
0.59695
0.354728
0.117676
5.9427
5.45926
4.80555
4.14254
3.53754
3.00693
2.54559
2.14177
1.78335
1.45996
1.16314
0.886135
0.623415
0.370339
0.122838
7.27556
6.4164
5.39702
4.49347
3.74945
3.1417
2.63732
2.20845
1.83429
1.49989
1.19443
0.90991
0.640201
0.380358
0.126172
9.51148
7.53372
5.87426
4.68498
3.82484
3.17309
2.6536
2.22044
1.84546
1.51083
1.20471
0.918827
0.647087
0.384701
0.127655
13.8368
8.33149
5.88089
4.54708
3.69173
3.07233
2.58367
2.17426
1.81624
1.4932
1.19468
0.913548
0.644583
0.383681
0.127393
-0.119366
-0.359869
-0.60579
-0.861092
-1.13033
-1.41904
-1.73437
-2.08614
-2.48872
-2.96501
-3.55489
-4.33659
-5.48628
-7.46603
-11.6757
-0.115432
-0.347779
-0.584635
-0.829214
-1.08506
-1.35622
-1.64749
-1.96467
-2.31484
-2.70622
-3.14624
-3.63129
-4.10006
-4.21904
-2.36303
-0.110464
-0.332543
-0.558095
-0.789481
-1.02911
-1.27939
-1.54257
-1.82027
-2.1123
-2.41362
-2.70621
-2.93715
-2.95668
-2.34357
0.057467
-0.104691
-0.314883
-0.527481
-0.743992
-0.965721
-1.19355
-1.42751
-1.66587
-1.90329
-2.12702
-2.30889
-2.38962
-2.25267
-1.70949
-0.674124
-0.0983514
-0.295539
-0.494127
-0.694845
-0.898051
-1.10341
-1.30936
-1.51208
-1.70377
-1.86946
-1.9817
-1.99306
-1.83086
-1.41701
-0.783762
-0.0916702
-0.275209
-0.459269
-0.643937
-0.82884
-1.01281
-1.19338
-1.3659
-1.52228
-1.64899
-1.72448
-1.7168
-1.58382
-1.27677
-0.702957
-0.0848464
-0.254501
-0.423964
-0.59283
-0.760228
-0.924528
-1.08293
-1.23089
-1.36137
-1.46407
-1.52496
-1.52738
-1.45762
-1.32166
-1.19995
-0.078044
-0.233913
-0.38905
-0.542708
-0.693722
-0.840284
-0.979672
-1.10795
-1.21971
-1.30817
-1.36598
-1.38795
-1.37733
-1.35652
-1.37032
-0.0713891
-0.213819
-0.355139
-0.494389
-0.630265
-0.76097
-0.884071
-0.996409
-1.09419
-1.17352
-1.23182
-1.27102
-1.30404
-1.36723
-1.54477
-0.0649715
-0.194482
-0.322643
-0.448378
-0.570353
-0.686884
-0.795886
-0.894918
-0.981433
-1.05343
-1.11087
-1.15828
-1.20968
-1.29841
-1.50382
-0.0588497
-0.176069
-0.291807
-0.404945
-0.514179
-0.617973
-0.714565
-0.802059
-0.878696
-0.943411
-0.996813
-1.04263
-1.0893
-1.14841
-1.20997
-0.0530569
-0.15867
-0.262752
-0.364188
-0.461737
-0.554012
-0.639505
-0.716679
-0.784181
-0.84119
-0.887935
-0.926269
-0.960197
-0.996565
-1.05175
-0.0476074
-0.142321
-0.23551
-0.326096
-0.412913
-0.494708
-0.570163
-0.637959
-0.696898
-0.746041
-0.784807
-0.812823
-0.82933
-0.831507
-0.805007
-0.0425013
-0.127016
-0.210053
-0.290585
-0.367531
-0.439754
-0.506081
-0.565333
-0.616366
-0.658048
-0.689056
-0.707223
-0.708346
-0.686228
-0.650547
-0.0377296
-0.112723
-0.186311
-0.257529
-0.325382
-0.38884
-0.446852
-0.498357
-0.542277
-0.577421
-0.602141
-0.613317
-0.60344
-0.550236
-0.367467
-0.0332765
-0.0993917
-0.164189
-0.226776
-0.286239
-0.341653
-0.392081
-0.43659
-0.474232
-0.503985
-0.524552
-0.533895
-0.528558
-0.504102
-0.467774
-0.0291224
-0.086961
-0.143579
-0.198155
-0.249863
-0.297872
-0.341361
-0.37953
-0.411612
-0.436883
-0.454681
-0.464529
-0.46688
-0.466071
-0.478704
-0.0252455
-0.0753633
-0.124361
-0.171491
-0.216008
-0.257174
-0.294274
-0.326637
-0.353668
-0.374922
-0.390255
-0.400231
-0.407293
-0.418582
-0.449433
-0.0216229
-0.0645287
-0.106416
-0.146607
-0.184434
-0.219244
-0.250415
-0.277382
-0.299681
-0.317024
-0.329478
-0.337834
-0.344668
-0.357368
-0.398508
-0.0182314
-0.0543869
-0.0896221
-0.123329
-0.154909
-0.183785
-0.209414
-0.231308
-0.249075
-0.262467
-0.271464
-0.276368
-0.277877
-0.276264
-0.262348
-0.0150484
-0.0448694
-0.073865
-0.101491
-0.127216
-0.150527
-0.170945
-0.18804
-0.20145
-0.210904
-0.216205
-0.217126
-0.213182
-0.203564
-0.190604
-0.0120521
-0.0359105
-0.0590337
-0.080938
-0.101152
-0.119222
-0.134724
-0.147269
-0.156518
-0.162169
-0.163897
-0.161122
-0.152367
-0.133047
-0.0842978
-0.00922164
-0.0274475
-0.0450235
-0.0615229
-0.07653
-0.089646
-0.100495
-0.108729
-0.114032
-0.116107
-0.114631
-0.109126
-0.0988303
-0.0828459
-0.0611591
-0.00653725
-0.0194212
-0.0317359
-0.043108
-0.0531749
-0.0615886
-0.0680207
-0.0721646
-0.0737353
-0.0724642
-0.0680813
-0.0603146
-0.0491765
-0.0364657
-0.0313556
-0.00398029
-0.0117757
-0.0190777
-0.0255637
-0.0309212
-0.0348517
-0.0370743
-0.0373262
-0.0353603
-0.0309368
-0.0238064
-0.013704
-0.000516942
0.0153143
0.0350009
-0.00153317
-0.00445814
-0.00696116
-0.00876737
-0.0096122
-0.00924546
-0.00743481
-0.00396607
0.0013626
0.00875762
0.0184739
0.0308863
0.0464039
0.0645518
0.0790719
0.000820616
0.00258096
0.00469637
0.00739683
0.0109013
0.015413
0.0211142
0.0281648
0.0367076
0.0468932
0.0589613
0.0734479
0.0915948
0.116452
0.158482
0.00309651
0.00938799
0.0159724
0.0230381
0.0307611
0.0392996
0.0487859
0.0593202
0.0709681
0.0837771
0.0978548
0.113604
0.132219
0.15658
0.192159
0.00530884
0.016006
0.0269391
0.0382581
0.0501001
0.0625817
0.0757887
0.0897611
0.104476
0.119834
0.135675
0.151912
0.168941
0.189062
0.222391
0.00747072
0.0224744
0.0376623
0.05315
0.0690401
0.0854139
0.102318
0.119744
0.13759
0.155607
0.173306
0.18981
0.203584
0.212511
0.221281
0.0095941
0.028829
0.0482016
0.0677972
0.0876892
0.107931
0.128544
0.149491
0.170635
0.191651
0.21185
0.229746
0.241646
0.236204
0.17023
0.0116898
0.0351019
0.0586101
0.082273
0.10614
0.130244
0.154595
0.179157
0.203816
0.228308
0.252074
0.273987
0.291803
0.302049
0.309848
0.0137674
0.041322
0.0689349
0.0966412
0.12447
0.15244
0.180558
0.208813
0.237162
0.26551
0.293658
0.321208
0.347278
0.369722
0.382331
0.0158357
0.0475154
0.0792184
0.110958
0.142744
0.174584
0.206484
0.23846
0.270558
0.302893
0.335725
0.369587
0.405361
0.444337
0.491694
0.017903
0.053706
0.0894996
0.125276
0.161025
0.196738
0.232414
0.26808
0.30384
0.339973
0.377139
0.416752
0.461307
0.513253
0.564253
0.0199766
0.0599165
0.0998157
0.139645
0.179373
0.218969
0.258407
0.297693
0.336916
0.376383
0.416924
0.4606
0.512205
0.582954
0.703312
0.0220639
0.0661685
0.110203
0.154117
0.197855
0.241358
0.28456
0.327404
0.369875
0.412097
0.45461
0.499063
0.549891
0.618339
0.732322
0.0241714
0.0724823
0.120696
0.168741
0.216542
0.264005
0.311016
0.357429
0.403054
0.447658
0.491027
0.533226
0.575416
0.622232
0.687143
0.0263055
0.0788766
0.131326
0.183568
0.235503
0.287013
0.337939
0.388052
0.436988
0.484123
0.528331
0.567519
0.59779
0.613679
0.626702
0.0284713
0.0853676
0.142123
0.198638
0.2548
0.310473
0.365477
0.419542
0.472217
0.522662
0.569195
0.608127
0.630197
0.607231
0.431017
0.0306733
0.0919685
0.153108
0.213983
0.274475
0.334444
0.393718
0.452048
0.509036
0.563959
0.615408
0.660567
0.693925
0.707303
0.711644
0.0329149
0.0986896
0.164298
0.229624
0.29455
0.358945
0.422665
0.485536
0.547331
0.607702
0.666054
0.721317
0.771579
0.813763
0.842184
0.0351988
0.105538
0.175702
0.245573
0.315032
0.38396
0.45225
0.519821
0.586657
0.652882
0.718902
0.785653
0.854916
0.929875
1.02067
0.037527
0.11252
0.187331
0.261837
0.335918
0.409462
0.482384
0.554666
0.626451
0.698241
0.771294
0.84834
0.93437
1.03509
1.13815
0.0399011
0.11964
0.19919
0.278423
0.357213
0.435439
0.51301
0.589904
0.666286
0.742764
0.820972
0.904885
1.00369
1.13879
1.3663
0.0423226
0.126903
0.211288
0.295344
0.378933
0.461914
0.544152
0.625544
0.706098
0.786127
0.866754
0.951188
1.04788
1.17844
1.398
0.0447926
0.134312
0.223633
0.312616
0.40111
0.488946
0.575925
0.661811
0.746315
0.829115
0.909956
0.989083
1.06861
1.15638
1.27175
0.0473116
0.14187
0.236231
0.330253
0.423778
0.516611
0.608501
0.699079
0.787755
0.873502
0.95441
1.0268
1.08368
1.11524
1.14183
0.049879
0.149575
0.249082
0.348262
0.446958
0.544972
0.642031
0.737709
0.831266
0.921284
1.00484
1.07538
1.11638
1.07765
0.766161
0.0524929
0.157422
0.262176
0.366631
0.470643
0.574034
0.676561
0.777853
0.877267
0.973587
1.06436
1.14459
1.20447
1.22955
1.23833
0.0551496
0.165399
0.275496
0.385333
0.494791
0.603732
0.71199
0.81934
0.925452
1.02977
1.13126
1.22803
1.31676
1.39285
1.44998
0.0578442
0.173491
0.289012
0.404321
0.519327
0.633942
0.748088
0.861727
0.974918
1.08793
1.20149
1.31714
1.43789
1.5694
1.72863
0.0605707
0.18168
0.302692
0.423542
0.544165
0.664513
0.784579
0.904465
1.02454
1.14576
1.2703
1.40279
1.55161
1.72678
1.91006
0.0633226
0.189945
0.3165
0.442941
0.569223
0.695315
0.821231
0.947111
1.0734
1.20129
1.33365
1.47717
1.64708
1.87863
2.26294
0.0660928
0.198267
0.330403
0.462472
0.59444
0.726271
0.857945
0.989507
1.12119
1.25376
1.38931
1.53331
1.69979
1.92449
2.29937
0.0688742
0.206622
0.344366
0.482094
0.619778
0.757367
0.894771
1.03185
1.1684
1.3042
1.43913
1.57391
1.71214
1.86612
2.0634
0.0716585
0.214988
0.358354
0.501766
0.645209
0.788623
0.931857
1.07459
1.21617
1.35525
1.48912
1.6122
1.71357
1.77778
1.83755
0.0744362
0.223338
0.372324
0.521435
0.670686
0.820033
0.969322
1.11817
1.26569
1.40996
1.54665
1.66564
1.74085
1.69259
1.21268
0.0771961
0.231637
0.386219
0.541026
0.696119
0.851512
1.00713
1.16269
1.3175
1.46996
1.61651
1.74956
1.85391
1.90721
1.93886
0.0799249
0.239844
0.39997
0.560436
0.721366
0.882865
1.045
1.20776
1.37096
1.53407
1.6958
1.85348
2.00243
2.13694
2.25236
0.0826077
0.247915
0.413497
0.579541
0.746241
0.913803
1.08247
1.25255
1.42452
1.59916
1.77793
1.96354
2.16104
2.37998
2.64679
0.0852291
0.255801
0.426714
0.598207
0.770537
0.944
1.11898
1.29606
1.47624
1.66141
1.85533
2.0654
2.3048
2.58984
2.89756
0.0877739
0.263455
0.439539
0.616308
0.794065
0.973165
1.15407
1.33745
1.52452
1.71759
1.92155
2.14694
2.4169
2.78402
3.3814
0.0902281
0.270836
0.4519
0.633736
0.81668
1.0011
1.18745
1.37631
1.56864
1.76624
1.97294
2.19758
2.46156
2.81835
3.40694
0.0925791
0.277904
0.463733
0.650409
0.838286
1.02773
1.2191
1.41278
1.60913
1.80859
2.01189
2.22097
2.4418
2.69178
3.00355
0.0948157
0.284628
0.474986
0.66626
0.858822
1.05303
1.24918
1.44741
1.64748
1.84829
2.04687
2.23625
2.40183
2.52235
2.6454
0.096928
0.290978
0.485612
0.681229
0.87823
1.077
1.27783
1.48078
1.68533
1.88956
2.08826
2.26811
2.39318
2.3512
1.70401
0.0989072
0.296926
0.495563
0.695247
0.896426
1.09955
1.30502
1.51307
1.72343
1.93467
2.14277
2.33808
2.50053
2.60037
2.67989
0.100746
0.302448
0.504792
0.708236
0.913283
1.12049
1.33045
1.54376
1.76091
1.98199
2.20617
2.4309
2.65139
2.8637
3.07408
0.10244
0.307529
0.513264
0.720121
0.928653
1.13952
1.35356
1.57181
1.79568
2.02715
2.26921
2.52669
2.80796
3.12841
3.52495
0.103988
0.312165
0.520961
0.73085
0.942409
1.15638
1.37375
1.59596
1.82518
2.06498
2.32155
2.606
2.93735
3.34031
3.79696
0.105398
0.316373
0.527902
0.740427
0.954501
1.17087
1.3906
1.61525
1.84734
2.09116
2.35455
2.65275
3.01702
3.51495
4.30964
0.106685
0.320197
0.534156
0.748932
0.965006
1.18305
1.40403
1.62938
1.86137
2.10377
2.36337
2.65366
3.00389
3.48354
4.27461
0.107873
0.323712
0.539847
0.756538
0.974148
1.19319
1.41442
1.63891
1.86819
2.10443
2.3509
2.61295
2.90089
3.2359
3.6407
0.108997
0.327022
0.545152
0.76351
0.982295
1.20182
1.42256
1.64512
1.87016
2.09799
2.32761
2.5543
2.76519
2.93981
3.13816
0.1101
0.330258
0.550301
0.770187
0.989928
1.20962
1.42944
1.64961
1.87018
2.09031
2.30637
2.50663
2.65468
2.62727
1.92565
0.111232
0.333574
0.555559
0.776964
0.997597
1.21732
1.43607
1.65383
1.87051
2.08544
2.29609
2.49524
2.66601
2.78292
2.90043
0.112447
0.337138
0.561219
0.784276
1.0059
1.2257
1.44338
1.6588
1.87206
2.08353
2.2938
2.50356
2.71472
2.93817
3.22157
0.113802
0.341124
0.567587
0.792582
1.01546
1.23555
1.45226
1.66527
1.87484
2.08245
2.29185
2.51092
2.75488
3.05178
3.45032
0.115352
0.345704
0.574974
0.802356
1.02694
1.24773
1.46371
1.67412
1.87898
2.08012
2.28318
2.50097
2.75827
3.09479
3.54247
0.117146
0.351034
0.583667
0.814066
1.04106
1.26324
1.47902
1.68682
1.88568
2.07643
2.26428
2.46356
2.70664
3.06059
3.66011
0.11922
0.357233
0.593905
0.828134
1.05851
1.28319
1.49985
1.70573
1.89799
2.07475
2.23742
2.39571
2.57799
2.85583
3.42502
0.121588
0.36436
0.605833
0.844869
1.0799
1.30869
1.52815
1.73407
1.92105
2.08283
2.21359
2.31119
2.38297
2.44871
2.48963
0.124237
0.372382
0.619444
0.864376
1.10559
1.34065
1.56583
1.77553
1.96158
2.11243
2.21277
2.24457
2.19212
2.0588
1.94104
0.127113
0.38115
0.634524
0.886446
1.13554
1.37945
1.61423
1.8334
2.02653
2.17708
2.25951
2.23644
2.05743
1.65805
0.907137
0.130117
0.390372
0.650597
0.910459
1.16907
1.42456
1.67342
1.90931
2.12103
2.28901
2.37952
2.33657
2.07576
1.50138
0.611656
0.133105
0.399604
0.666907
0.935318
1.20472
1.47423
1.74158
2.00197
2.24589
2.45472
2.59219
2.58798
2.31183
1.56365
0.281634
0.135888
0.408267
0.682429
0.959464
1.24027
1.52536
1.81453
2.10605
2.3951
2.67
2.90326
3.02821
2.87567
1.99656
-0.813721
0.138249
0.415681
0.695938
0.980963
1.2728
1.57363
1.8858
2.21181
2.55411
2.91423
3.28956
3.66113
3.94398
3.77043
1.48215
0.139957
0.421123
0.706113
0.997699
1.29904
1.61396
1.9474
2.30622
2.70074
3.14792
3.67855
4.35572
5.32901
7.01238
10.7209
10.5041
6.67177
4.97784
4.02184
3.37078
2.86934
2.45238
2.08828
1.75969
1.45612
1.17064
0.898323
0.635407
0.378813
0.125873
0.858332
3.30684
3.53974
3.29585
2.95926
2.61805
2.29156
1.98233
1.68872
1.40827
1.1385
0.877149
0.622136
0.371543
0.12356
-1.49424
1.48058
2.4326
2.63412
2.55091
2.35652
2.11876
1.8655
1.60858
1.35296
1.10049
0.851547
0.605776
0.362448
0.120644
-0.18631
1.05895
1.84655
2.17002
2.21974
2.1251
1.95671
1.75121
1.52752
1.29543
1.05999
0.823715
0.587701
0.352284
0.117365
-0.00193062
0.955039
1.58273
1.89597
1.98881
1.94491
1.82043
1.64953
1.45224
1.24018
1.02005
0.795673
0.569194
0.341761
0.113952
0.292234
1.07972
1.53724
1.77494
1.85282
1.82067
1.71638
1.56615
1.3872
1.19051
0.983025
0.769067
0.551332
0.331491
0.110602
1.22245
1.43348
1.64436
1.76487
1.79321
1.74652
1.6442
1.50269
1.33444
1.14831
0.950466
0.745064
0.534919
0.321941
0.107469
1.72004
1.78731
1.81421
1.81879
1.78568
1.71099
1.59922
1.45778
1.29405
1.11423
0.923131
0.724336
0.520462
0.313421
0.104656
2.57596
2.16914
1.99955
1.89886
1.807
1.70119
1.57482
1.42834
1.26482
1.08796
0.901121
0.707123
0.508196
0.306092
0.10222
2.82496
2.38621
2.137
1.97278
1.83799
1.70566
1.56439
1.4107
1.24485
1.0686
0.88407
0.693321
0.498127
0.299988
0.100176
2.83506
2.47164
2.2154
2.02626
1.86724
1.71632
1.56255
1.40149
1.23209
1.05496
0.87133
0.682597
0.490097