/*--------------------------------*- C++ -*----------------------------------*\
| =========                 |                                                 |
| \\      /  F ield         | OpenFOAM: The Open Source CFD Toolbox           |
|  \\    /   O peration     | Version:  5.x                                   |
|   \\  /    A nd           | Web:      www.OpenFOAM.org                      |
|    \\/     M anipulation  |                                                 |
\*---------------------------------------------------------------------------*/
FoamFile
{
    version     2.0;
    format      ascii;
    class       volScalarField;
    location    "2.9";
    object      gradTx;
}
// * * * * * * * * * * * * * * * * * * * * * * * * * * * * * * * * * * * * * //

dimensions      [0 -1 0 1 0 0 0];

internalField   nonuniform List<scalar> 
6300
(
-48.0886
-48.0633
-48.0126
-47.9363
-47.8342
-47.7062
-47.5522
-47.3721
-47.1665
-46.9359
-46.6814
-46.4044
-46.1067
-45.7903
-45.4568
-48.1139
-48.0887
-48.0381
-47.962
-47.8601
-47.7322
-47.5781
-47.3977
-47.1914
-46.9598
-46.7038
-46.4251
-46.1255
-45.8073
-45.4724
-48.1643
-48.1393
-48.0891
-48.0135
-47.9121
-47.7844
-47.6302
-47.4493
-47.2417
-47.0079
-46.749
-46.4666
-46.163
-45.8409
-45.5029
-48.2397
-48.2151
-48.1655
-48.0907
-47.9901
-47.8631
-47.709
-47.5274
-47.318
-47.0812
-46.8177
-46.5294
-46.2191
-45.8903
-45.5469
-48.3398
-48.3156
-48.2671
-48.1937
-48.0945
-47.9688
-47.8154
-47.6333
-47.4219
-47.181
-46.9111
-46.6143
-46.2937
-45.9543
-45.6018
-48.4638
-48.4405
-48.3936
-48.3223
-48.2255
-48.1021
-47.9503
-47.7685
-47.5553
-47.3096
-47.0315
-46.7227
-46.3872
-46.0315
-45.6642
-48.6112
-48.589
-48.5444
-48.4762
-48.3832
-48.2636
-48.1151
-47.9352
-47.7211
-47.4707
-47.1826
-46.8579
-46.5009
-46.1202
-45.7287
-48.7805
-48.76
-48.7185
-48.6549
-48.5675
-48.454
-48.3114
-48.1359
-47.9233
-47.6693
-47.3703
-47.0255
-46.6383
-46.2197
-45.7887
-48.9703
-48.952
-48.9147
-48.8573
-48.7778
-48.6735
-48.5404
-48.3736
-48.1668
-47.9127
-47.604
-47.2353
-46.8072
-46.3315
-45.8355
-49.1784
-49.1628
-49.131
-49.0817
-49.013
-48.9216
-48.8032
-48.6513
-48.4576
-48.2107
-47.8975
-47.5045
-47.0239
-46.4635
-45.8603
-49.4019
-49.3896
-49.3646
-49.3255
-49.2706
-49.1967
-49.0992
-48.9709
-48.8014
-48.5751
-48.2707
-47.8613
-47.3203
-46.6383
-45.8568
-49.6376
-49.6292
-49.612
-49.5852
-49.5472
-49.4954
-49.4259
-49.3318
-49.2018
-49.0175
-48.7489
-48.3499
-47.7576
-46.9127
-45.8305
-49.8817
-49.8775
-49.869
-49.8559
-49.8373
-49.8119
-49.7771
-49.7284
-49.6565
-49.5442
-49.3576
-49.0315
-48.4476
-47.4242
-45.8217
-50.1298
-50.13
-50.1306
-50.1319
-50.1341
-50.1375
-50.1423
-50.1479
-50.1516
-50.1452
-50.1057
-49.9711
-49.5768
-48.5148
-46.0025
-50.3775
-50.382
-50.3915
-50.4068
-50.4295
-50.4617
-50.5067
-50.5694
-50.6568
-50.7792
-50.9489
-51.1702
-51.3736
-51.0556
-47.3179
-45.138
-44.8368
-44.5253
-44.203
-43.869
-43.522
-43.1607
-42.7838
-42.3904
-41.98
-41.5526
-41.1091
-40.6508
-40.1797
-39.6982
-39.2089
-38.7146
-38.2182
-37.7228
-37.2312
-36.7464
-36.2714
-35.809
-35.3616
-34.9316
-34.521
-34.1312
-33.7635
-33.4187
-33.0972
-32.7992
-32.5244
-32.2722
-32.0418
-31.8324
-31.6429
-31.4722
-31.3192
-31.1828
-31.0619
-30.9556
-30.863
-30.7831
-30.7153
-30.6592
-30.6148
-30.5821
-30.5618
-30.5546
-30.5613
-30.583
-30.6206
-30.6749
-30.7465
-30.8359
-30.9431
-31.068
-31.2103
-31.3693
-31.5441
-31.7338
-31.9374
-32.1538
-32.382
-32.621
-32.8699
-33.1279
-33.3942
-33.668
-33.9487
-34.2355
-34.5279
-34.8254
-35.1276
-35.4342
-35.745
-36.0597
-36.378
-36.6998
-37.0246
-37.3522
-37.6824
-38.0148
-38.349
-38.6846
-39.0207
-39.3564
-39.6902
-40.0206
-40.3456
-45.1529
-44.8518
-44.541
-44.22
-43.8877
-43.5427
-43.1833
-42.8078
-42.4151
-42.0045
-41.576
-41.1304
-40.6694
-40.195
-39.7097
-39.2163
-38.7178
-38.2172
-37.7174
-37.2215
-36.7326
-36.2537
-35.7876
-35.3369
-34.9041
-34.4912
-34.0997
-33.7308
-33.3854
-33.0639
-32.7662
-32.4921
-32.241
-32.012
-31.8041
-31.6162
-31.4471
-31.2956
-31.1607
-31.0414
-30.9364
-30.8449
-30.766
-30.6988
-30.6429
-30.5981
-30.5647
-30.5433
-30.5347
-30.5401
-30.5604
-30.5968
-30.6502
-30.7213
-30.8104
-30.9178
-31.0433
-31.1864
-31.3466
-31.5228
-31.714
-31.9191
-32.137
-32.3665
-32.6068
-32.8569
-33.116
-33.3833
-33.6582
-33.9398
-34.2274
-34.5204
-34.8185
-35.1211
-35.4281
-35.7392
-36.0542
-36.3729
-36.695
-37.0202
-37.3482
-37.6788
-38.0118
-38.3468
-38.6834
-39.021
-39.3586
-39.6948
-40.0279
-40.3559
-45.1818
-44.8807
-44.5714
-44.2532
-43.9249
-43.5842
-43.229
-42.8568
-42.4658
-42.0549
-41.6241
-41.1744
-40.7075
-40.2261
-39.733
-39.2314
-38.7244
-38.2152
-37.7067
-37.2022
-36.7048
-36.2178
-35.7442
-35.2869
-34.8484
-34.4309
-34.036
-33.6648
-33.3182
-32.9964
-32.6996
-32.4272
-32.1785
-31.9523
-31.7476
-31.5629
-31.3969
-31.2486
-31.1168
-31.0004
-30.8983
-30.8093
-30.7323
-30.6664
-30.6108
-30.5655
-30.5305
-30.5067
-30.4953
-30.4975
-30.515
-30.5489
-30.6004
-30.6702
-30.759
-30.8667
-30.9933
-31.1383
-31.3009
-31.48
-31.6743
-31.8825
-32.1034
-32.3356
-32.5784
-32.8308
-33.0921
-33.3616
-33.6385
-33.922
-34.2113
-34.5057
-34.8047
-35.1081
-35.4157
-35.7275
-36.0432
-36.3626
-36.6855
-37.0115
-37.3402
-37.6715
-38.0054
-38.3417
-38.6803
-39.0208
-39.3623
-39.7032
-40.0419
-40.376
-45.2227
-44.9214
-44.6145
-44.3013
-43.9798
-43.647
-43.2992
-42.9329
-42.5452
-42.1342
-41.6997
-41.2431
-40.7667
-40.2741
-39.7688
-39.2545
-38.7346
-38.2122
-37.6906
-37.1728
-36.6624
-36.1628
-35.6776
-35.21
-34.7629
-34.3385
-33.9384
-33.5638
-33.2154
-32.8936
-32.5982
-32.3286
-32.0837
-31.8623
-31.6625
-31.4828
-31.3218
-31.1783
-31.0511
-30.9393
-30.8416
-30.7567
-30.6831
-30.6194
-30.5646
-30.5182
-30.4805
-30.4527
-30.4364
-30.4335
-30.4461
-30.4759
-30.5244
-30.5923
-30.6804
-30.7887
-30.9171
-31.065
-31.2316
-31.4154
-31.6147
-31.8279
-32.0533
-32.2897
-32.5362
-32.7919
-33.0565
-33.3293
-33.6094
-33.8958
-34.1877
-34.4841
-34.7845
-35.0889
-35.3972
-35.7098
-36.0265
-36.3472
-36.6713
-36.9984
-37.3281
-37.6602
-37.995
-38.3329
-38.6742
-39.0188
-39.3661
-39.7146
-40.0621
-40.406
-45.2723
-44.9702
-44.6668
-44.3614
-44.0511
-43.7313
-43.3963
-43.0401
-42.6581
-42.2474
-41.8075
-41.3403
-40.8497
-40.3406
-39.8178
-39.2859
-38.7485
-38.2086
-37.6692
-37.1333
-36.6046
-36.0874
-35.5859
-35.104
-34.645
-34.2113
-33.8045
-33.4254
-33.0748
-32.7531
-32.4599
-32.1947
-31.9558
-31.7413
-31.5489
-31.3763
-31.222
-31.0848
-30.9638
-30.8582
-30.767
-30.6883
-30.6201
-30.5601
-30.5066
-30.4587
-30.4168
-30.3825
-30.3584
-30.3475
-30.3528
-30.3765
-30.4205
-30.4858
-30.5728
-30.6819
-30.8129
-30.9652
-31.1377
-31.3285
-31.5353
-31.7558
-31.9876
-32.2295
-32.4805
-32.7404
-33.0091
-33.2863
-33.571
-33.8619
-34.1574
-34.4565
-34.7586
-35.0637
-35.3726
-35.6858
-36.0038
-36.3264
-36.6525
-36.9814
-37.3121
-37.6447
-37.9798
-38.3188
-38.6628
-39.0125
-39.3677
-39.7267
-40.0871
-40.4451
-45.3252
-45.0208
-44.7221
-44.4286
-44.1363
-43.8377
-43.5237
-43.1847
-42.8126
-42.4028
-41.9546
-41.4715
-40.9597
-40.4268
-39.8802
-39.3254
-38.7662
-38.2047
-37.6429
-37.0835
-36.5307
-35.9897
-35.4662
-34.9654
-34.4912
-34.0459
-33.6308
-33.2464
-32.8932
-32.5717
-32.282
-32.0232
-31.7932
-31.589
-31.407
-31.244
-31.0981
-30.9683
-30.8546
-30.757
-30.6746
-30.6053
-30.5456
-30.4919
-30.4409
-30.3909
-30.3424
-30.298
-30.2618
-30.2387
-30.2331
-30.2484
-30.2864
-30.3481
-30.4339
-30.5439
-30.6782
-30.8365
-31.0175
-31.2187
-31.4365
-31.6672
-31.9077
-32.1561
-32.412
-32.6762
-32.9496
-33.2324
-33.5236
-33.821
-34.122
-34.4246
-34.7281
-35.033
-35.3413
-35.6548
-35.9745
-36.3
-36.6297
-36.9612
-37.2931
-37.6251
-37.9588
-38.2969
-38.6426
-38.9979
-39.3631
-39.7366
-40.1147
-40.4927
-45.3732
-45.063
-44.77
-44.4943
-44.2303
-43.9665
-43.6874
-43.377
-43.0216
-42.6136
-42.1524
-41.6441
-41.1001
-40.5331
-39.9545
-39.3716
-38.7873
-38.2014
-37.6133
-37.0247
-36.4402
-35.8672
-35.3142
-34.7888
-34.2959
-33.8375
-33.4133
-33.0228
-32.6663
-32.345
-32.0599
-31.8106
-31.594
-31.4052
-31.2381
-31.0877
-30.9513
-30.829
-30.7227
-30.6342
-30.5638
-30.5087
-30.4631
-30.4203
-30.3742
-30.3215
-30.2626
-30.202
-30.1468
-30.105
-30.0838
-30.0877
-30.1185
-30.1762
-30.2603
-30.371
-30.5092
-30.6754
-30.8686
-31.0852
-31.3193
-31.5648
-31.8165
-32.0719
-32.3317
-32.5988
-32.8765
-33.1665
-33.4672
-33.7748
-34.0842
-34.3914
-34.6952
-34.9974
-35.3023
-35.6145
-35.9365
-36.2674
-36.6037
-36.9403
-37.2736
-37.6028
-37.9308
-38.2637
-38.608
-38.9684
-39.3463
-39.7392
-40.142
-40.5477
-45.4036
-45.0806
-44.793
-44.5434
-44.3242
-44.1172
-43.8964
-43.6339
-43.3066
-42.9013
-42.4179
-41.8685
-41.2737
-40.6564
-40.0353
-39.4202
-38.811
-38.2015
-37.585
-36.9602
-36.3333
-35.716
-35.1228
-34.5658
-34.0515
-33.58
-33.1476
-32.7506
-32.3891
-32.0664
-31.7867
-31.5511
-31.3554
-31.1905
-31.0454
-30.9115
-30.7848
-30.6673
-30.5654
-30.4859
-30.4316
-30.3987
-30.377
-30.3538
-30.3175
-30.2613
-30.1857
-30.0986
-30.0127
-29.9421
-29.8986
-29.8885
-29.9122
-29.9666
-30.0487
-30.1588
-30.2999
-30.4757
-30.6863
-30.9264
-31.186
-31.4536
-31.72
-31.9814
-32.2408
-32.5061
-32.7859
-33.085
-33.401
-33.7259
-34.0494
-34.3631
-34.6643
-34.9576
-35.2527
-35.5599
-35.8853
-36.227
-36.5768
-36.9239
-37.2596
-37.5816
-37.8956
-38.2138
-38.5497
-38.9134
-39.3073
-39.7271
-40.1645
-40.609
-45.3977
-45.0473
-44.7613
-44.5486
-44.4008
-44.288
-44.1655
-43.9844
-43.7041
-43.3017
-42.7784
-42.1583
-41.48
-40.7854
-40.1075
-39.4604
-38.8356
-38.2118
-37.5687
-36.8992
-36.2126
-35.5307
-34.8796
-34.2814
-33.7457
-33.2667
-32.8311
-32.4279
-32.0564
-31.7262
-31.4503
-31.2348
-31.0729
-30.9474
-30.8372
-30.7255
-30.6054
-30.4835
-30.3762
-30.3016
-30.2692
-30.2728
-30.2935
-30.3067
-30.2897
-30.2292
-30.1259
-29.9939
-29.8569
-29.7405
-29.6655
-29.6409
-29.6621
-29.7173
-29.7973
-29.9021
-30.041
-30.2259
-30.4616
-30.7397
-31.0413
-31.3442
-31.6307
-31.8939
-32.1415
-32.3925
-32.6676
-32.9789
-33.3219
-33.6791
-34.0286
-34.3524
-34.6448
-34.9151
-35.1852
-35.479
-35.8102
-36.1746
-36.5537
-36.9236
-37.265
-37.5715
-37.854
-38.1377
-38.4512
-38.8144
-39.2304
-39.6893
-40.176
-40.6752
-45.3278
-44.9214
-44.6243
-44.4604
-44.4269
-44.4731
-44.5189
-44.4778
-44.2775
-43.8764
-43.2786
-42.5321
-41.7099
-40.8904
-40.1356
-39.4687
-38.8591
-38.2499
-37.5907
-36.8631
-36.0856
-35.301
-34.5606
-33.9075
-33.3583
-32.8914
-32.4683
-32.0598
-31.6644
-31.3083
-31.0271
-30.8415
-30.7385
-30.6826
-30.6315
-30.5517
-30.4292
-30.2789
-30.1401
-30.0571
-30.0551
-30.1226
-30.2213
-30.3032
-30.3248
-30.2594
-30.1074
-29.8968
-29.6715
-29.4797
-29.3602
-29.3277
-29.3631
-29.4325
-29.5103
-29.5964
-29.7162
-29.9032
-30.1759
-30.5192
-30.8949
-31.2587
-31.5749
-31.8289
-32.0375
-32.2439
-32.4974
-32.8272
-33.2221
-33.6434
-34.0444
-34.3871
-34.6568
-34.8728
-35.0836
-35.3441
-35.6871
-36.1009
-36.5436
-36.964
-37.3202
-37.5956
-37.8106
-38.0183
-38.2808
-38.6389
-39.0913
-39.6111
-40.1692
-40.7449
-45.1532
-44.6381
-44.2956
-44.1848
-44.3381
-44.6589
-44.9976
-45.2007
-45.1402
-44.7344
-43.993
-43.0151
-41.9361
-40.9024
-40.0375
-39.3944
-38.8824
-38.3604
-37.7113
-36.8989
-35.9693
-35.0077
-34.116
-33.3844
-32.8527
-32.4531
-32.0847
-31.6732
-31.2161
-30.7829
-30.4665
-30.3293
-30.3368
-30.411
-30.4677
-30.4396
-30.2933
-30.0582
-29.8242
-29.696
-29.7415
-29.9277
-30.1737
-30.387
-30.4857
-30.4143
-30.1738
-29.8213
-29.4382
-29.1149
-28.9299
-28.917
-29.0155
-29.1358
-29.2115
-29.2424
-29.2947
-29.4573
-29.7888
-30.2519
-30.7658
-31.2419
-31.6086
-31.8296
-31.9366
-32.0274
-32.2174
-32.5817
-33.084
-33.637
-34.1441
-34.5269
-34.7461
-34.8378
-34.91
-35.0902
-35.4617
-35.9853
-36.5655
-37.0965
-37.4917
-37.7064
-37.7772
-37.8198
-37.9722
-38.3276
-38.8546
-39.4777
-40.1365
-40.8136
-44.81
-44.1062
-43.6332
-43.5286
-44.0084
-44.8192
-45.6715
-46.3035
-46.5003
-46.0757
-45.048
-43.6439
-42.0975
-40.6713
-39.6201
-39.1317
-38.9202
-38.654
-38.0674
-37.104
-35.8993
-34.6141
-33.4412
-32.5738
-32.157
-31.9702
-31.7637
-31.3523
-30.7339
-30.0896
-29.6484
-29.6093
-29.8394
-30.1648
-30.4263
-30.4982
-30.2857
-29.8365
-29.3563
-29.0851
-29.2256
-29.647
-30.1735
-30.6362
-30.8919
-30.8131
-30.402
-29.7901
-29.1191
-28.5511
-28.2523
-28.3459
-28.6367
-28.9037
-28.9774
-28.8579
-28.7146
-28.7685
-29.2124
-29.9117
-30.6911
-31.3827
-31.8523
-31.9943
-31.8591
-31.6683
-31.6863
-32.1373
-32.8729
-33.6968
-34.4226
-34.9019
-35.0191
-34.8304
-34.5808
-34.5608
-35.0172
-35.7877
-36.658
-37.4243
-37.9227
-38.0239
-37.7839
-37.463
-37.3706
-37.7688
-38.4791
-39.2926
-40.0771
-40.8596
-44.1608
-43.2416
-42.4405
-42.0306
-43.2021
-44.9195
-46.6626
-48.0332
-48.7554
-48.2855
-46.6454
-44.4777
-42.086
-39.9006
-38.3924
-38.4708
-39.0369
-39.4096
-38.9663
-37.6568
-35.9455
-34.0594
-32.327
-31.1145
-31.1309
-31.5158
-31.7383
-31.3301
-30.2893
-29.1043
-28.2518
-28.5022
-29.2052
-30.0112
-30.6585
-30.967
-30.6197
-29.6598
-28.5881
-27.882
-28.306
-29.2154
-30.2658
-31.184
-31.7803
-31.6911
-30.9197
-29.8449
-28.6522
-27.6005
-27.0099
-27.4916
-28.2927
-28.9503
-29.0218
-28.5082
-27.8507
-27.5186
-28.2685
-29.4564
-30.7428
-31.8436
-32.5678
-32.5584
-31.8618
-31.0088
-30.5316
-31.2834
-32.5346
-33.8975
-35.0562
-35.7981
-35.7325
-34.9106
-33.9205
-33.3451
-34.1197
-35.4463
-36.8998
-38.1374
-38.9253
-38.8322
-37.9068
-36.7764
-36.0621
-36.7602
-37.9543
-39.1487
-40.0203
-40.7701
-42.6843
-42.207
-40.6846
-38.2557
-41.6099
-44.9831
-48.1903
-50.6967
-52.7274
-52.1804
-49.003
-45.6339
-41.7777
-38.1549
-34.8802
-37.1076
-39.4323
-41.3405
-41.1128
-38.7883
-36.2437
-33.2835
-30.4643
-27.8857
-29.5744
-31.2957
-32.6216
-32.2191
-30.0526
-27.6405
-25.2674
-26.7433
-28.4233
-30.0866
-31.3787
-32.3807
-31.8362
-29.6446
-27.2936
-25.0517
-26.6876
-28.5813
-30.549
-32.1957
-33.656
-33.5521
-31.8746
-30.0698
-27.9825
-25.986
-24.2236
-26.1776
-28.1555
-29.8412
-29.9089
-28.3658
-26.5185
-24.7107
-26.694
-28.8596
-31.0621
-32.8467
-34.34
-34.1119
-32.0897
-29.8081
-27.6071
-29.7101
-32.0355
-34.3923
-36.2899
-37.8568
-37.5346
-35.233
-32.6628
-30.1854
-32.4273
-34.9218
-37.4523
-39.4979
-41.1959
-40.8389
-38.3244
-35.4904
-32.7197
-35.0367
-37.4288
-39.4691
-40.1381
-39.9686
-37.5187
-42.6777
-40.2338
-26.1529
-39.9906
-45.2857
-50.7272
-54.0452
-60.4117
-59.8632
-51.6368
-47.492
-41.1335
-35.908
-23.4453
-35.6047
-40.4276
-46.3475
-46.2789
-40.2372
-37.1406
-32.3052
-28.2554
-18.5122
-27.9713
-31.6455
-35.994
-35.6487
-30.1701
-26.121
-16.7409
-24.6911
-27.666
-30.6969
-32.5172
-36.022
-35.4248
-29.8596
-25.8426
-16.6379
-24.6988
-27.8409
-31.2952
-33.4764
-37.785
-37.6797
-33.0135
-30.702
-27.1826
-24.0347
-16.0864
-24.8295
-28.4393
-33.0627
-33.1157
-28.6618
-25.1298
-16.4441
-24.857
-28.2098
-31.9835
-34.2695
-38.591
-38.2494
-32.6912
-28.4914
-18.4848
-27.8166
-31.491
-35.5481
-37.9998
-42.6358
-42.1869
-35.9418
-31.2712
-20.2295
-30.3705
-34.3454
-38.7026
-41.3583
-46.425
-45.952
-39.2016
-34.1125
-22.0504
-33.2046
-37.4094
-41.7636
-41.462
-35.412
-40.694
-41.061
-41.4103
-41.7387
-42.0436
-42.3226
-42.5743
-42.7979
-42.9928
-43.1591
-43.2969
-43.4064
-43.4882
-43.5425
-43.5696
-40.7076
-41.0781
-41.4307
-41.7619
-42.0688
-42.3493
-42.602
-42.826
-43.021
-43.1871
-43.3245
-43.4337
-43.5151
-43.5692
-43.5961
-40.7348
-41.1127
-41.472
-41.8087
-42.1199
-42.4033
-42.6577
-42.8825
-43.0775
-43.2431
-43.3798
-43.4882
-43.5689
-43.6223
-43.649
-40.7758
-41.1655
-41.5352
-41.8805
-42.1981
-42.4858
-42.7426
-42.9682
-43.163
-43.3275
-43.4629
-43.5698
-43.6493
-43.7018
-43.728
-40.8311
-41.2377
-41.6222
-41.9794
-42.3056
-42.5987
-42.8581
-43.0842
-43.278
-43.4407
-43.5737
-43.6784
-43.7559
-43.8071
-43.8325
-40.9014
-41.3314
-41.7361
-42.1088
-42.4456
-42.7447
-43.0064
-43.232
-43.4234
-43.5828
-43.7123
-43.8137
-43.8884
-43.9376
-43.962
-40.9878
-41.4499
-41.8813
-42.2736
-42.6226
-42.9276
-43.1902
-43.4133
-43.6003
-43.7544
-43.8785
-43.975
-44.0458
-44.0923
-44.1153
-41.0928
-41.5987
-42.065
-42.4811
-42.8431
-43.1523
-43.4129
-43.6302
-43.8095
-43.9553
-44.0716
-44.1614
-44.227
-44.2698
-44.291
-41.2205
-41.7867
-42.2984
-42.7422
-43.116
-43.4252
-43.6784
-43.8845
-44.0514
-44.1851
-44.2906
-44.3715
-44.4302
-44.4685
-44.4873
-41.3776
-42.0287
-42.5994
-43.0731
-43.4533
-43.7538
-43.9906
-44.1776
-44.3257
-44.4425
-44.5337
-44.6031
-44.6533
-44.6859
-44.702
-41.5752
-42.3508
-42.9969
-43.4969
-43.87
-44.146
-44.3524
-44.5094
-44.6306
-44.7249
-44.7979
-44.8532
-44.8932
-44.9192
-44.9321
-41.8276
-42.8018
-43.5399
-44.0466
-44.383
-44.6078
-44.7636
-44.8767
-44.962
-45.0279
-45.0791
-45.1181
-45.1466
-45.1652
-45.1744
-42.1555
-43.488
-44.3136
-44.7649
-45.0056
-45.138
-45.2175
-45.2716
-45.3124
-45.3451
-45.3717
-45.393
-45.409
-45.4198
-45.4253
-42.6437
-44.6804
-45.4628
-45.6942
-45.7348
-45.7199
-45.6969
-45.6797
-45.6706
-45.6678
-45.669
-45.6723
-45.6761
-45.6792
-45.6809
-44.0205
-47.1252
-47.1624
-46.8143
-46.5175
-46.3092
-46.1702
-46.0798
-46.022
-45.9858
-45.9637
-45.9506
-45.9432
-45.9393
-45.9376
-50.6003
-50.6084
-50.6252
-50.6521
-50.6914
-50.7469
-50.8243
-50.9329
-51.0879
-51.3169
-51.6744
-52.2854
-53.4985
-56.5193
-66.4179
-50.7971
-50.808
-50.8304
-50.8663
-50.9183
-50.991
-51.0915
-51.231
-51.4284
-51.7166
-52.1578
-52.881
-54.1747
-56.7102
-61.8798
-50.9863
-50.9994
-51.0264
-51.0691
-51.1306
-51.2156
-51.3314
-51.489
-51.7059
-52.0098
-52.4453
-53.0803
-53.9883
-55.0718
-55.0537
-51.1663
-51.181
-51.2112
-51.2588
-51.3265
-51.4188
-51.5422
-51.7058
-51.9229
-52.2115
-52.5941
-53.0898
-53.68
-54.1984
-54.0955
-51.3359
-51.3517
-51.3839
-51.4343
-51.5052
-51.6004
-51.725
-51.8855
-52.0902
-52.3478
-52.6642
-53.0334
-53.4215
-53.7563
-54.0743
-51.4945
-51.5108
-51.544
-51.5954
-51.667
-51.7616
-51.8827
-52.0345
-52.2207
-52.4431
-52.6971
-52.9641
-53.2
-53.3258
-53.2685
-51.6417
-51.658
-51.6912
-51.7423
-51.8126
-51.9042
-52.0192
-52.1596
-52.3261
-52.5163
-52.7207
-52.9162
-53.0548
-53.0223
-52.4245
-51.7773
-51.7934
-51.8259
-51.8756
-51.9434
-52.0305
-52.138
-52.2665
-52.415
-52.5794
-52.7499
-52.9079
-53.0285
-53.1111
-53.4575
-51.9016
-51.9172
-51.9485
-51.9962
-52.0606
-52.1425
-52.2423
-52.3596
-52.4929
-52.6382
-52.7871
-52.9257
-53.0286
-53.0164
-52.4425
-52.015
-52.0298
-52.0597
-52.1049
-52.1655
-52.242
-52.3342
-52.4416
-52.5626
-52.6941
-52.8311
-52.9681
-53.1087
-53.3117
-54.0117
-52.1178
-52.1319
-52.1601
-52.2026
-52.2594
-52.3305
-52.4156
-52.5142
-52.625
-52.746
-52.8745
-53.008
-53.1454
-53.2616
-53.0882
-52.2107
-52.224
-52.2505
-52.2902
-52.3431
-52.409
-52.4876
-52.5784
-52.6804
-52.7925
-52.9138
-53.0452
-53.1969
-53.4123
-53.9513
-52.2943
-52.3067
-52.3314
-52.3684
-52.4176
-52.4786
-52.5512
-52.6348
-52.7288
-52.8325
-52.9454
-53.0682
-53.204
-53.3379
-53.2862
-52.369
-52.3806
-52.4036
-52.438
-52.4836
-52.5401
-52.607
-52.684
-52.7705
-52.8658
-52.9695
-53.0823
-53.2124
-53.392
-53.7963
-52.4355
-52.4463
-52.4677
-52.4996
-52.5419
-52.5941
-52.6558
-52.7267
-52.806
-52.8931
-52.9864
-53.0843
-53.1865
-53.2897
-53.3809
-52.4944
-52.5044
-52.5243
-52.5539
-52.593
-52.6413
-52.6983
-52.7635
-52.8364
-52.9157
-52.9994
-53.0834
-53.1599
-53.1953
-53.0315
-52.5461
-52.5554
-52.5739
-52.6013
-52.6376
-52.6823
-52.735
-52.7952
-52.8622
-52.935
-53.0113
-53.0877
-53.1617
-53.239
-53.4275
-52.5911
-52.5998
-52.6169
-52.6425
-52.6761
-52.7175
-52.7663
-52.8221
-52.8841
-52.9516
-53.0224
-53.0935
-53.1611
-53.2052
-53.1007
-52.6299
-52.638
-52.654
-52.6777
-52.709
-52.7475
-52.7928
-52.8447
-52.9024
-52.9655
-53.0324
-53.1019
-53.177
-53.2742
-53.5047
-52.6629
-52.6704
-52.6853
-52.7075
-52.7366
-52.7725
-52.8148
-52.8631
-52.9172
-52.9764
-53.0397
-53.1062
-53.1774
-53.2501
-53.2714
-52.6905
-52.6975
-52.7114
-52.7321
-52.7594
-52.7929
-52.8324
-52.8777
-52.9284
-52.9841
-53.044
-53.1072
-53.1769
-53.2612
-53.4041
-52.7129
-52.7194
-52.7325
-52.7519
-52.7775
-52.8089
-52.846
-52.8886
-52.9362
-52.9887
-53.0449
-53.1037
-53.1661
-53.2312
-53.2911
-52.7304
-52.7366
-52.7489
-52.7672
-52.7913
-52.8209
-52.8558
-52.8959
-52.9408
-52.9903
-53.0431
-53.0976
-53.1535
-53.2045
-53.223
-52.7434
-52.7493
-52.7609
-52.7782
-52.8009
-52.8289
-52.8619
-52.8998
-52.9424
-52.9892
-53.0391
-53.0905
-53.1442
-53.1999
-53.2628
-52.7521
-52.7576
-52.7687
-52.7851
-52.8067
-52.8333
-52.8646
-52.9006
-52.9411
-52.9856
-53.033
-53.0818
-53.1336
-53.1896
-53.2582
-52.7565
-52.7619
-52.7724
-52.7881
-52.8087
-52.834
-52.864
-52.8984
-52.9371
-52.9796
-53.0248
-53.0711
-53.12
-53.1703
-53.2031
-52.757
-52.7621
-52.7723
-52.7873
-52.8071
-52.8314
-52.8602
-52.8933
-52.9305
-52.9713
-53.0146
-53.0586
-53.1056
-53.1624
-53.2762
-52.7537
-52.7586
-52.7684
-52.7829
-52.802
-52.8255
-52.8534
-52.8854
-52.9215
-52.961
-53.0026
-53.0439
-53.0842
-53.1145
-53.078
-52.7466
-52.7514
-52.7609
-52.775
-52.7935
-52.8164
-52.8435
-52.8748
-52.9101
-52.9489
-52.9897
-53.0299
-53.0697
-53.1125
-53.2126
-52.7359
-52.7406
-52.7498
-52.7636
-52.7817
-52.8041
-52.8307
-52.8615
-52.8964
-52.935
-52.9759
-53.0162
-53.0532
-53.07
-52.9847
-52.7217
-52.7263
-52.7353
-52.7488
-52.7666
-52.7887
-52.8149
-52.8454
-52.8802
-52.9192
-52.9612
-53.0047
-53.0508
-53.0977
-53.1379
-52.7039
-52.7084
-52.7174
-52.7307
-52.7483
-52.7701
-52.7961
-52.8264
-52.8613
-52.9007
-52.9441
-52.9914
-53.0479
-53.1295
-53.3234
-52.6827
-52.6872
-52.696
-52.7092
-52.7267
-52.7483
-52.7742
-52.8044
-52.8392
-52.8789
-52.9231
-52.9716
-53.0274
-53.0827
-53.0442
-52.658
-52.6625
-52.6713
-52.6844
-52.7018
-52.7233
-52.7491
-52.7793
-52.814
-52.8536
-52.8977
-52.9467
-53.0074
-53.1003
-53.3465
-52.6299
-52.6343
-52.6431
-52.6563
-52.6736
-52.6952
-52.7209
-52.751
-52.7856
-52.8246
-52.8675
-52.9136
-52.9651
-53.0107
-52.921
-52.5983
-52.6028
-52.6116
-52.6248
-52.6422
-52.6639
-52.6897
-52.7197
-52.7541
-52.7925
-52.8337
-52.8765
-52.927
-53.0145
-53.3411
-52.5633
-52.5678
-52.5767
-52.59
-52.6075
-52.6293
-52.6553
-52.6856
-52.72
-52.758
-52.7974
-52.8342
-52.8632
-52.8515
-52.5882
-52.5248
-52.5293
-52.5383
-52.5518
-52.5695
-52.5916
-52.618
-52.6486
-52.6835
-52.7219
-52.7613
-52.7971
-52.8276
-52.8625
-53.062
-52.4828
-52.4874
-52.4965
-52.5101
-52.5281
-52.5506
-52.5775
-52.6089
-52.6448
-52.6847
-52.7261
-52.7638
-52.789
-52.7584
-52.4616
-52.4372
-52.4418
-52.4511
-52.4649
-52.4833
-52.5062
-52.5338
-52.5661
-52.6035
-52.6458
-52.6918
-52.7393
-52.7892
-52.8384
-52.8779
-52.3879
-52.3927
-52.4021
-52.4162
-52.435
-52.4584
-52.4866
-52.5199
-52.5589
-52.6038
-52.6548
-52.713
-52.7898
-52.9244
-53.3268
-52.335
-52.3398
-52.3494
-52.3638
-52.3829
-52.4069
-52.4358
-52.47
-52.5102
-52.5571
-52.6113
-52.6738
-52.7502
-52.8236
-52.6904
-52.2782
-52.2832
-52.293
-52.3077
-52.3272
-52.3516
-52.3811
-52.416
-52.457
-52.5049
-52.5602
-52.6251
-52.7127
-52.8655
-53.3368
-52.2177
-52.2227
-52.2327
-52.2477
-52.2676
-52.2925
-52.3225
-52.358
-52.3993
-52.4469
-52.5006
-52.5605
-52.63
-52.6855
-52.4658
-52.1532
-52.1583
-52.1686
-52.1838
-52.2042
-52.2296
-52.2601
-52.296
-52.3374
-52.3842
-52.4351
-52.4892
-52.5571
-52.6957
-53.2978
-52.0847
-52.09
-52.1004
-52.116
-52.1368
-52.1627
-52.1938
-52.2303
-52.2719
-52.318
-52.3655
-52.4082
-52.4351
-52.3833
-51.8507
-52.0122
-52.0175
-52.0282
-52.0441
-52.0654
-52.0919
-52.1237
-52.161
-52.2036
-52.2503
-52.2975
-52.3382
-52.3677
-52.4039
-52.7422
-51.9355
-51.9409
-51.9518
-51.9681
-51.9898
-52.017
-52.0498
-52.0883
-52.1325
-52.1817
-52.2322
-52.276
-52.2957
-52.214
-51.6539
-51.8545
-51.8601
-51.8712
-51.8878
-51.9101
-51.9379
-51.9717
-52.0117
-52.0582
-52.1114
-52.1698
-52.2305
-52.294
-52.3555
-52.4028
-51.7693
-51.7749
-51.7862
-51.8032
-51.8259
-51.8544
-51.8892
-51.9306
-51.9795
-52.037
-52.1038
-52.183
-52.2938
-52.5059
-53.1904
-51.6796
-51.6854
-51.6969
-51.7141
-51.7372
-51.7663
-51.8018
-51.8444
-51.8951
-51.9555
-52.0273
-52.1137
-52.2232
-52.3273
-52.0755
-51.5855
-51.5913
-51.603
-51.6205
-51.6439
-51.6734
-51.7095
-51.7527
-51.8042
-51.8655
-51.9386
-52.0285
-52.1565
-52.3949
-53.1756
-51.4868
-51.4927
-51.5045
-51.5222
-51.5459
-51.5757
-51.612
-51.6554
-51.7066
-51.7667
-51.8363
-51.9167
-52.013
-52.085
-51.6933
-51.3836
-51.3895
-51.4014
-51.4192
-51.4431
-51.4731
-51.5095
-51.5527
-51.6031
-51.6607
-51.7244
-51.794
-51.8865
-52.0961
-53.0758
-51.2758
-51.2817
-51.2937
-51.3116
-51.3356
-51.3657
-51.4022
-51.4452
-51.4948
-51.5498
-51.6064
-51.6556
-51.6785
-51.5718
-50.673
-51.1633
-51.1693
-51.1812
-51.1992
-51.2233
-51.2535
-51.2902
-51.3333
-51.3829
-51.4373
-51.4914
-51.5353
-51.5605
-51.5965
-52.124
-51.0462
-51.0522
-51.0641
-51.0821
-51.1062
-51.1365
-51.1735
-51.2172
-51.2678
-51.3242
-51.3816
-51.428
-51.435
-51.279
-50.3563
-50.9244
-50.9304
-50.9423
-50.9602
-50.9842
-51.0146
-51.0519
-51.0964
-51.149
-51.2098
-51.2773
-51.3483
-51.4225
-51.4932
-51.5454
-50.798
-50.8039
-50.8157
-50.8334
-50.8573
-50.8877
-50.925
-50.9702
-51.0247
-51.0901
-51.1685
-51.2662
-51.4125
-51.7192
-52.7773
-50.6671
-50.6728
-50.6844
-50.7019
-50.7255
-50.7555
-50.7925
-50.8378
-50.8929
-50.9606
-51.0443
-51.1504
-51.2911
-51.4224
-50.9974
-50.5316
-50.5372
-50.5485
-50.5656
-50.5886
-50.618
-50.6543
-50.6986
-50.7527
-50.8194
-50.9024
-51.0107
-51.1763
-51.5109
-52.682
-50.3916
-50.3971
-50.4081
-50.4246
-50.4469
-50.4753
-50.5103
-50.5527
-50.6041
-50.6661
-50.7407
-50.8312
-50.9441
-51.0176
-50.3803
-50.2474
-50.2526
-50.2632
-50.2791
-50.3005
-50.3276
-50.3609
-50.4009
-50.4483
-50.5035
-50.5657
-50.6361
-50.7392
-51.0169
-52.4487
-50.0989
-50.104
-50.114
-50.1292
-50.1495
-50.1753
-50.2067
-50.244
-50.2873
-50.3353
-50.3829
-50.4184
-50.4132
-50.2139
-48.8346
-49.9465
-49.9513
-49.9608
-49.9751
-49.9943
-50.0186
-50.0482
-50.0832
-50.1234
-50.1666
-50.2063
-50.2289
-50.2219
-50.2291
-50.953
-49.7902
-49.7947
-49.8036
-49.8171
-49.8351
-49.8579
-49.8858
-49.919
-49.9575
-49.9996
-50.0392
-50.0601
-50.0208
-49.7457
-48.3692
-49.6303
-49.6344
-49.6428
-49.6553
-49.672
-49.6933
-49.7196
-49.7513
-49.7893
-49.8338
-49.883
-49.9331
-49.9835
-50.0262
-50.0479
-49.467
-49.4708
-49.4784
-49.4899
-49.5053
-49.5249
-49.5493
-49.5794
-49.6168
-49.6639
-49.7238
-49.806
-49.9516
-50.32
-51.7486
-49.3004
-49.3039
-49.3108
-49.3212
-49.3351
-49.3528
-49.375
-49.4026
-49.4379
-49.4843
-49.5468
-49.635
-49.7649
-49.8767
-49.2173
-49.131
-49.1341
-49.1403
-49.1495
-49.1618
-49.1773
-49.1966
-49.2207
-49.2516
-49.2928
-49.3497
-49.435
-49.5909
-49.9678
-51.4659
-48.9588
-48.9615
-48.967
-48.975
-48.9856
-48.9988
-49.0147
-49.0342
-49.0585
-49.0897
-49.1305
-49.186
-49.2635
-49.2792
-48.3418
-48.7842
-48.7866
-48.7913
-48.7983
-48.8072
-48.8178
-48.8303
-48.8445
-48.8608
-48.8792
-48.8988
-48.9218
-48.979
-49.2515
-50.9936
-48.6073
-48.6095
-48.6136
-48.6195
-48.6269
-48.6353
-48.6444
-48.6536
-48.6619
-48.667
-48.6625
-48.634
-48.545
-48.202
-46.36
-48.4284
-48.4304
-48.4341
-48.4392
-48.4454
-48.452
-48.4583
-48.4634
-48.4655
-48.4608
-48.4406
-48.3881
-48.2874
-48.1925
-48.9565
-48.2477
-48.2495
-48.2529
-48.2576
-48.263
-48.2684
-48.273
-48.2754
-48.274
-48.2648
-48.2388
-48.1757
-48.0259
-47.5855
-45.843
-48.0651
-48.0669
-48.0703
-48.0749
-48.0801
-48.0851
-48.0889
-48.0904
-48.0881
-48.0796
-48.0603
-48.0234
-47.9662
-47.8817
-47.7739
-47.8807
-47.8826
-47.8863
-47.8913
-47.8968
-47.9022
-47.9063
-47.9081
-47.9067
-47.9013
-47.8918
-47.8854
-47.9254
-48.193
-49.6371
-47.6944
-47.6966
-47.7008
-47.7066
-47.7132
-47.7197
-47.7251
-47.7283
-47.7284
-47.725
-47.7188
-47.7152
-47.7264
-47.6864
-46.7937
-47.506
-47.5087
-47.5137
-47.5207
-47.529
-47.5376
-47.5454
-47.5509
-47.5528
-47.5498
-47.5418
-47.5346
-47.5632
-47.7707
-49.0539
-47.3153
-47.3185
-47.3246
-47.3334
-47.344
-47.3557
-47.367
-47.3762
-47.3808
-47.3775
-47.3618
-47.3293
-47.2757
-47.1068
-45.9656
-47.1218
-47.1256
-47.1332
-47.1441
-47.1578
-47.1736
-47.1901
-47.2049
-47.2145
-47.213
-47.1911
-47.1387
-47.0683
-47.1172
-48.3384
-46.9252
-46.9297
-46.9388
-46.9522
-46.9697
-46.9907
-47.0141
-47.0373
-47.0561
-47.062
-47.0392
-46.9607
-46.7782
-46.3123
-44.5432
-46.7248
-46.7301
-46.7407
-46.7569
-46.7786
-46.8059
-46.8379
-46.8731
-46.9069
-46.9301
-46.9236
-46.8549
-46.6849
-46.4113
-46.5494
-46.5202
-46.5262
-46.5383
-46.5571
-46.5832
-46.6172
-46.6596
-46.7099
-46.7655
-46.8182
-46.8489
-46.8195
-46.6636
-46.2234
-44.9392
-46.3109
-46.3174
-46.3307
-46.3518
-46.3817
-46.4223
-46.4755
-46.5433
-46.6262
-46.7208
-46.8135
-46.8721
-46.8397
-46.6205
-46.1633
-46.0966
-46.1033
-46.1173
-46.1396
-46.1724
-46.2183
-46.2813
-46.3663
-46.4791
-46.624
-46.7994
-46.9879
-47.1456
-47.182
-47.0768
-45.8772
-45.8837
-45.8973
-45.9197
-45.9533
-46.002
-46.0716
-46.1703
-46.3098
-46.5054
-46.7738
-47.1252
-47.5357
-47.8406
-47.6048
-45.6527
-45.6585
-45.6708
-45.6914
-45.7233
-45.7709
-45.8415
-45.9461
-46.1018
-46.3355
-46.6884
-47.2216
-47.9992
-48.8738
-48.2952
-45.4237
-45.4282
-45.438
-45.4548
-45.4817
-45.5235
-45.5877
-45.6865
-45.8398
-46.0819
-46.4753
-47.1482
-48.3954
-50.9151
-56.358
-45.1911
-45.1938
-45.1998
-45.2107
-45.2294
-45.2601
-45.3097
-45.3891
-45.5164
-45.7226
-46.0659
-46.6762
-47.9081
-50.9253
-60.4399
-61.8741
-52.177
-49.0735
-47.7942
-47.1519
-46.7848
-46.5595
-46.4165
-46.3242
-46.264
-46.2249
-46.1998
-46.1841
-46.175
-46.1708
-58.0876
-52.1897
-49.5444
-48.2426
-47.5356
-47.1178
-46.8565
-46.6876
-46.5763
-46.502
-46.4523
-46.4193
-46.398
-46.3853
-46.3794
-49.041
-49.9425
-49.0827
-48.278
-47.7167
-47.3412
-47.0893
-46.9189
-46.8025
-46.7225
-46.6675
-46.6301
-46.6054
-46.5904
-46.5834
-48.7369
-48.9173
-48.5831
-48.1441
-47.7669
-47.4779
-47.2656
-47.1128
-47.0034
-46.9254
-46.8701
-46.8315
-46.8056
-46.7896
-46.782
-48.3138
-48.2484
-48.1568
-47.967
-47.7541
-47.5604
-47.4009
-47.2766
-47.1824
-47.1121
-47.0606
-47.0237
-46.9983
-46.9824
-46.9747
-47.0101
-47.5968
-47.799
-47.8057
-47.7262
-47.6182
-47.5118
-47.4196
-47.3445
-47.2856
-47.2405
-47.2072
-47.1838
-47.1689
-47.1617
-46.238
-47.2109
-47.5774
-47.704
-47.716
-47.6741
-47.613
-47.5509
-47.4954
-47.449
-47.4118
-47.3834
-47.3629
-47.3497
-47.3432
-47.1775
-47.2452
-47.5228
-47.6816
-47.7415
-47.7424
-47.715
-47.6777
-47.6398
-47.6055
-47.5766
-47.5535
-47.5364
-47.5251
-47.5196
-45.6959
-47.1325
-47.5512
-47.7278
-47.8059
-47.8294
-47.824
-47.8052