/*--------------------------------*- C++ -*----------------------------------*\
| =========                 |                                                 |
| \\      /  F ield         | OpenFOAM: The Open Source CFD Toolbox           |
|  \\    /   O peration     | Version:  5.x                                   |
|   \\  /    A nd           | Web:      www.OpenFOAM.org                      |
|    \\/     M anipulation  |                                                 |
\*---------------------------------------------------------------------------*/
FoamFile
{
    version     2.0;
    format      ascii;
    class       volScalarField;
    location    "1.7";
    object      gradTy;
}
// * * * * * * * * * * * * * * * * * * * * * * * * * * * * * * * * * * * * * //

dimensions      [0 -1 0 1 0 0 0];

internalField   nonuniform List<scalar> 
6300
(
32274.3
32223
32171.7
32120.5
32069.5
32018.6
31968
31917.6
31867.6
31817.8
31768.5
31719.6
31671.2
31623.3
31575.9
-0.0296264
-0.0889977
-0.1487
-0.208898
-0.26968
-0.331013
-0.392716
-0.454434
-0.515631
-0.575606
-0.633545
-0.688622
-0.740135
-0.787676
-0.831277
-0.0492427
-0.147946
-0.247261
-0.347499
-0.448838
-0.551259
-0.654485
-0.757934
-0.860696
-0.961544
-1.05902
-1.15157
-1.23786
-1.31703
-1.38905
-0.0686502
-0.206283
-0.344883
-0.484975
-0.626885
-0.770663
-0.915985
-1.06207
-1.20762
-1.3508
-1.48934
-1.62073
-1.74266
-1.85348
-1.95289
-0.0877176
-0.263644
-0.441008
-0.620619
-0.803046
-0.988498
-1.17669
-1.36671
-1.55687
-1.74465
-1.92675
-2.09931
-2.2585
-2.40132
-2.52671
-0.106281
-0.319542
-0.534852
-0.753405
-0.976129
-1.20353
-1.4355
-1.67113
-1.90841
-2.1441
-2.3736
-2.59117
-2.79061
-2.9665
-3.11608
-0.124145
-0.373386
-0.625433
-0.881992
-1.1445
-1.41393
-1.69061
-1.97382
-2.26147
-2.54967
-2.83231
-3.10111
-3.3462
-3.55793
-3.72993
-0.141053
-0.424408
-0.711472
-1.00459
-1.30588
-1.61704
-1.9391
-2.27198
-2.61392
-2.9607
-3.30478
-3.63467
-3.93508
-4.18903
-4.38274
-0.156705
-0.471696
-0.791417
-1.11896
-1.45731
-1.80916
-2.17667
-2.56098
-2.96142
-3.37432
-3.79135
-4.19761
-4.57034
-4.88027
-5.09871
-0.170767
-0.514228
-0.863488
-1.22247
-1.59516
-1.98553
-2.39735
-2.83374
-3.29635
-3.78371
-4.2886
-4.79398
-5.26828
-5.66284
-5.91929
-0.182892
-0.550929
-0.925784
-1.31221
-1.71526
-2.14036
-2.59334
-3.0802
-3.60643
-4.17548
-4.78523
-5.42128
-6.04577
-6.58328
-6.91759
-0.192755
-0.580781
-0.976458
-1.38525
-1.81321
-2.26723
-2.75537
-3.28716
-3.8736
-4.52645
-5.2554
-6.05995
-6.90994
-7.70653
-8.22939
-0.200092
-0.602947
-1.01396
-1.43907
-1.88502
-2.35987
-2.87366
-3.43939
-4.07424
-4.80119
-5.64979
-6.65288
-7.82709
-9.10298
-10.1303
-0.204745
-0.616922
-1.03731
-1.47196
-1.92783
-2.41346
-2.93993
-3.52238
-4.18268
-4.95411
-5.88946
-7.07432
-8.64206
-10.7475
-13.227
-0.2067
-0.622642
-1.04636
-1.48354
-1.94077
-2.42613
-2.95012
-3.5274
-4.17987
-4.94293
-5.87929
-7.11248
-8.91893
-12.0177
-18.6289
31532.9
31494.3
31456.1
31418.3
31381
31344.2
31307.8
31271.9
31236.6
31201.8
31167.5
31133.8
31100.6
31068.1
31036.1
31004.8
30974
30943.9
30914.4
30885.4
30857.1
30829.4
30802.2
30775.6
30749.5
30723.9
30698.8
30674.2
30650.1
30626.4
30603
30580.1
30557.4
30535.1
30513.1
30491.3
30469.8
30448.4
30427.3
30406.3
30385.4
30364.7
30344
30323.4
30302.8
30282.3
30261.7
30241.1
30220.4
30199.6
30178.8
30157.7
30136.6
30115.2
30093.6
30071.8
30049.7
30027.4
30004.7
29981.6
29958.2
29934.4
29910.2
29885.6
29860.5
29835
29809
29782.5
29755.5
29727.9
29699.9
29671.3
29642.2
29612.6
29582.4
29551.6
29520.3
29488.5
29456.1
29423.1
29389.6
29355.5
29321
29285.8
29250.2
29214
29177.3
29140.1
29102.4
29064.3
-0.868153
-0.900036
-0.931077
-0.962118
-0.993892
-1.02688
-1.06117
-1.09646
-1.132
-1.16676
-1.19952
-1.2291
-1.25442
-1.27466
-1.28926
-1.29789
-1.30039
-1.29671
-1.28684
-1.27084
-1.2488
-1.22092
-1.18753
-1.14904
-1.106
-1.05901
-1.0087
-0.955712
-0.900655
-0.844122
-0.786666
-0.728792
-0.670931
-0.613423
-0.556505
-0.50032
-0.444936
-0.39038
-0.336661
-0.283784
-0.231739
-0.180473
-0.129868
-0.0797131
-0.0297122
0.0204883
0.071251
0.122888
0.17561
0.22949
0.284456
0.340306
0.396731
0.453355
0.509755
0.565483
0.620081
0.673105
0.724141
0.772845
0.818962
0.862334
0.902892
0.940622
0.975526
1.00759
1.03676
1.06298
1.08618
1.10635
1.12355
1.13789
1.14953
1.15859
1.16518
1.16933
1.17106
1.17035
1.16726
1.16189
1.15439
1.1449
1.13351
1.12013
1.10453
1.0863
1.06492
1.03985
1.01062
0.976934
-1.44941
-1.5013
-1.5517
-1.60227
-1.65446
-1.70926
-1.76693
-1.8269
-1.88779
-1.94764
-2.00417
-2.05515
-2.09866
-2.1333
-2.15816
-2.1728
-2.17707
-2.17094
-2.15443
-2.12758
-2.09054
-2.04358
-1.98723
-1.92223
-1.84954
-1.77022
-1.68537
-1.59607
-1.50337
-1.40827
-1.31171
-1.21457
-1.1176
-1.02138
-0.926294
-0.832547
-0.740204
-0.649268
-0.559738
-0.471637
-0.384985
-0.299746
-0.215747
-0.132636
-0.0498724
0.033211
0.117311
0.203031
0.290775
0.380681
0.472607
0.566169
0.660807
0.755847
0.850554
0.944155
1.03586
1.12488
1.21049
1.29206
1.36917
1.44156
1.50918
1.57205
1.63025
1.68376
1.73248
1.77626
1.81494
1.84847
1.87695
1.90062
1.91978
1.93473
1.94565
1.95257
1.95544
1.9542
1.94888
1.93969
1.92696
1.91105
1.89218
1.87029
1.84496
1.81541
1.78065
1.73963
1.69143
1.63546
-2.03486
-2.10454
-2.17195
-2.23994
-2.31113
-2.38736
-2.46923
-2.55585
-2.64492
-2.73312
-2.81662
-2.89177
-2.95553
-3.00584
-3.04161
-3.06249
-3.06855
-3.05994
-3.03672
-2.99886
-2.9464
-2.87962
-2.79923
-2.70636
-2.60249
-2.48925
-2.3683
-2.24121
-2.10944
-1.9744
-1.83749
-1.70001
-1.5631
-1.42762
-1.29409
-1.16269
-1.0334
-0.90609
-0.780727
-0.657378
-0.536185
-0.417229
-0.300358
-0.185077
-0.0705241
0.0444288
0.160986
0.280197
0.402755
0.528879
0.658308
0.790381
0.924189
1.05869
1.19281
1.32542
1.45535
1.58141
1.70246
1.81753
1.92597
2.02747
2.12208
2.21001
2.2915
2.36659
2.43509
2.49664
2.55087
2.59762
2.63704
2.66958
2.69585
2.71643
2.73161
2.74138
2.74548
2.74364
2.73582
2.72234
2.70387
2.68121
2.65496
2.62517
2.59121
2.55178
2.50515
2.44948
2.38323
2.30531
-2.62731
-2.71111
-2.79141
-2.87304
-2.96059
-3.05742
-3.16476
-3.28132
-3.40337
-3.52541
-3.64118
-3.74483
-3.8318
-3.89937
-3.94653
-3.97356
-3.98119
-3.97001
-3.94013
-3.8912
-3.82288
-3.73527
-3.62921
-3.50635
-3.36893
-3.2194
-3.06009
-2.89307
-2.72018
-2.54323
-2.36408
-2.18461
-2.00651
-1.83102
-1.65877
-1.48977
-1.32367
-1.16006
-0.998758
-0.839951
-0.6841
-0.531637
-0.382604
-0.23639
-0.0916694
0.0534228
0.20093
0.352637
0.509698
0.672425
0.840306
1.01221
1.18668
1.36221
1.53736
1.71065
1.88052
2.04528
2.20317
2.35269
2.49288
2.62344
2.74471
2.85739
2.9621
3.05904
3.14783
3.22767
3.2977
3.35746
3.40715
3.44767
3.48025
3.506
3.52548
3.53847
3.54419
3.54182
3.531
3.51225
3.4869
3.45665
3.42291
3.38614
3.34543
3.29862
3.24272
3.17466
3.09182
2.99248
-3.23072
-3.32263
-3.40889
-3.49757
-3.59669
-3.71232
-3.84701
-3.9989
-4.16186
-4.32673
-4.48321
-4.6219
-4.73605
-4.82229
-4.88048
-4.91255
-4.92091
-4.90705
-4.87096
-4.81146
-4.72717
-4.61751
-4.4834
-4.32732
-4.15281
-3.96363
-3.763
-3.55339
-3.3368
-3.11523
-2.89112
-2.66723
-2.44617
-2.22978
-2.01877
-1.81268
-1.61038
-1.41072
-1.2132
-1.01827
-0.827133
-0.641101
-0.460786
-0.285548
-0.113344
0.0589456
0.234832
0.417378
0.608493
0.808565
1.01653
1.23035
1.44766
1.66633
1.88459
2.10082
2.31311
2.51905
2.71594
2.90133
3.07368
3.23281
3.37976
3.51628
3.64391
3.76324
3.8735
3.97288
4.05937
4.13182
4.19052
4.23723
4.27451
4.30466
4.32873
4.34605
4.35461
4.35219
4.33765
4.31173
4.27703
4.23715
4.19529
4.15283
4.1085
4.05857
3.99788
3.9212
3.82426
3.70435
-3.85185
-3.94232
-4.02294
-4.10718
-4.20912
-4.33994
-4.50471
-4.70074
-4.91781
-5.14039
-5.35108
-5.53458
-5.6807
-5.78583
-5.85227
-5.88593
-5.89288
-5.87633
-5.83572
-5.76766
-5.66821
-5.53517
-5.36942
-5.17502
-4.95802
-4.72452
-4.479
-4.22394
-3.96072
-3.69104
-3.41799
-3.1459
-2.87919
-2.6209
-2.37174
-2.13019
-1.89333
-1.65833
-1.42393
-1.19113
-0.962814
-0.742309
-0.531618
-0.330282
-0.135073
0.0593715
0.259241
0.469891
0.69452
0.933483
1.1845
1.44366
1.7069
1.97124
2.23498
2.4969
2.75507
3.00614
3.24557
3.46902
3.67383
3.86003
4.03017
4.18828
4.33802
4.48086
4.61521
4.737
4.84164
4.92637
4.99155
5.04077
5.07942
5.11248
5.14213
5.16666
5.18124
5.18043
5.16111
5.12427
5.07503
5.02091
4.96895
4.92261
4.88001
4.83438
4.77642
4.69724
4.59007
4.45091
-4.50233
-4.57622
-4.63178
-4.69135
-4.78002
-4.91877
-5.11755
-5.37247
-5.66604
-5.97141
-6.25835
-6.50132
-6.68466
-6.80534
-6.87151
-6.89806
-6.89893
-6.88052
-6.8403
-6.7693
-6.65788
-6.50017
-6.29696
-6.0555
-5.78722
-5.50295
-5.20894
-4.90646
-4.59411
-4.2719
-3.94364
-3.61697
-3.30027
-2.99899
-2.7139
-2.44105
-2.17369
-1.90517
-1.63243
-1.35758
-1.0873
-0.82941
-0.588979
-0.366177
-0.15567
0.0520317
0.268184
0.502345
0.759993
1.04115
1.34088
1.65123
1.96471
2.27723
2.58821
2.89861
3.20752
3.51023
3.79851
4.06381
4.3011
4.51067
4.69825
4.87269
5.04242
5.21107
5.37539
5.52618
5.65299
5.74947
5.816
5.85997
5.89283
5.92564
5.96332
6.00206
6.0305
6.03576
6.01027
5.95513
5.88052
5.802
5.73499
5.68744
5.65636
5.62837
5.58594
5.51399
5.40233
5.24575
-5.20286
-5.23645
-5.23472
-5.23345
-5.27858
-5.41093
-5.64932
-5.98835
-6.39712
-6.82881
-7.22881
-7.55381
-7.77871
-7.90325
-7.94771
-7.94704
-7.93263
-7.91604
-7.88908
-7.82904
-7.71413
-7.53064
-7.27948
-6.97452
-6.63936
-6.29535
-5.95101
-5.60313
-5.24165
-4.8614
-4.46693
-4.07362
-3.69909
-3.3537
-3.03839
-2.74394
-2.45568
-2.15807
-1.84393
-1.51742
-1.19392
-0.891365
-0.620945
-0.384359
-0.172217
0.0325216
0.25118
0.500951
0.791579
1.12201
1.48192
1.85424
2.22386
2.58539
2.94223
3.30243
3.66885
4.03506
4.38446
4.69888
4.96821
5.19292
5.3852
5.56378
5.74829
5.94742
6.15495
6.34978
6.50789
6.61557
6.67282
6.69504
6.70621
6.73168
6.78286
6.85216
6.91301
6.93526
6.902
6.81394
6.69152
6.56645
6.47288
6.42849
6.42815
6.44307
6.43789
6.38782
6.2792
6.10779
-5.99114
-5.94721
-5.83661
-5.70824
-5.65088
-5.74961
-6.0353
-6.50287
-7.09426
-7.73094
-8.30636
-8.7495
-9.01635
-9.11552
-9.08797
-9.0149
-8.96853
-8.96556
-8.98461
-8.96693
-8.86826
-8.65768
-8.33866
-7.93623
-7.50348
-7.08746
-6.69745
-6.31868
-5.91551
-5.47072
-4.98793
-4.50262
-4.05541
-3.66458
-3.33234
-3.03746
-2.75074
-2.43438
-2.07292
-1.67268
-1.27015
-0.906892
-0.60409
-0.36729
-0.178093
-0.00707671
0.189276
0.440554
0.765622
1.1601
1.60473
2.0607
2.49416
2.89981
3.29084
3.69668
4.12984
4.5834
5.02006
5.39808
5.69875
5.92096
6.09095
6.24536
6.43209
6.6706
6.95172
7.2251
7.43423
7.55305
7.57882
7.54475
7.49771
7.49939
7.57497
7.71309
7.84975
7.91333
7.87126
7.72085
7.50498
7.2842
7.1386
7.10482
7.17666
7.28544
7.35324
7.34475
7.2453
7.0638
-6.9362
-6.75338
-6.46347
-6.08014
-5.79771
-5.81822
-6.15837
-6.83791
-7.72498
-8.72001
-9.57313
-10.1977
-10.4942
-10.509
-10.2924
-10.043
-9.94062
-9.98211
-10.1317
-10.2202
-10.1823
-9.93968
-9.51671
-8.94044
-8.34235
-7.84101
-7.42661
-7.06834
-6.64829
-6.1338
-5.5116
-4.87585
-4.32969
-3.8903
-3.57179
-3.31855
-3.08788
-2.7751
-2.35722
-1.8308
-1.28944
-0.835062
-0.491984
-0.281559
-0.157746
-0.0831976
0.0481671
0.273713
0.63946
1.12561
1.71081
2.29905
2.80392
3.23459
3.61735
4.05077
4.56059
5.15515
5.7391
6.2076
6.54111
6.72298
6.81784
6.87905
7.03993
7.33094
7.75813
8.19134
8.48897
8.62282
8.56924
8.41133
8.21721
8.1588
8.27513
8.57421
8.8898
9.04156
8.99459
8.72005
8.32356
7.89177
7.64138
7.62714
7.87011
8.18498
8.37666
8.4309
8.3279
8.15309
-8.16824
-7.71306
-7.22428
-6.3064
-5.50831
-5.42685
-5.79316
-6.87459
-8.20067
-9.9139
-11.1694
-12.119
-12.3781
-12.236
-11.5448
-10.8599
-10.7061
-10.8435
-11.3675
-11.6559
-11.7917
-11.4819
-10.916
-9.97656
-9.0424
-8.46983
-8.07543
-7.90742
-7.51751
-6.95245
-6.05519
-5.12041
-4.45058
-3.94226
-3.71757
-3.56746
-3.54357
-3.26745
-2.79808
-2.01064
-1.18359
-0.603046
-0.188924
-0.0711885
-0.0665525
-0.241225
-0.228627
-0.0950484
0.339966
0.948583
1.81271
2.6577
3.22081
3.63866
3.8712
4.29516
4.86966
5.74256
6.62485
7.21202
7.60238
7.6508
7.59372
7.36975
7.46092
7.79579
8.55651
9.3535
9.78029
9.96324
9.71063
9.3308
8.74203
8.56739
8.71293
9.41236
10.1666
10.4569
10.4465
9.89577
9.19386
8.23907
7.80503
7.77998
8.46095
9.26278
9.59889
9.74437
9.51488
9.43953
-9.97538
-8.72085
-8.60293
-6.35989
-4.18655
-4.39027
-4.39783
-6.55872
-8.11862
-11.7667
-13.2059
-15.0344
-14.8394
-14.7533
-12.7881
-10.9118
-11.0519
-11.1479
-12.9422
-13.3114
-14.0425
-13.3927
-12.8532
-11.0048
-9.22161
-8.84193
-8.39809
-9.06587
-8.63879
-8.24933
-6.65265
-4.98334
-4.33873
-3.5857
-3.7558
-3.63449
-4.36236
-4.03801
-3.69688
-2.24745
-0.722731
-0.131342
0.540978
0.302096
0.282858
-0.668928
-0.679683
-0.897936
-0.209613
0.403534
1.94206
3.42215
3.84678
4.30949
3.84933
4.32269
4.74895
6.31632
7.93544
8.49971
9.1559
8.73041
8.60975
7.4065
7.53076
7.6472
9.30243
11.0485
11.4225
11.9306
11.035
10.5509
8.67026
8.51466
8.35285
10.1713
12.1113
12.3047
12.6763
11.2889
10.4281
7.83625
7.37952
6.91595
8.87759
11.011
11.0955
11.5977
10.4798
11.0779
-13.3865
-8.09183
-13.0414
-6.3126
0.558724
-3.63544
0.0991651
-7.10739
-5.02867
-16.7991
-14.6811
-20.8625
-17.143
-19.9757
-13.9021
-8.05923
-11.4601
-9.00603
-16.568
-14.4449
-18.2806
-15.144
-16.6744
-11.9384
-7.37879
-9.30557
-7.11918
-11.8001
-9.70513
-11.2838
-7.354
-3.36996
-4.38233
-1.89915
-4.21303
-2.47815
-6.69582
-4.83231
-6.1912
-2.59233
1.08249
0.224141
2.58325
0.359314
1.97524
-2.45165
-0.832026
-3.00639
-0.651164
-1.4743
2.15523
5.70616
4.41754
6.30877
2.48274
4.41747
2.98445
6.81489
10.7644
9.65431
12.2663
9.37025
11.1838
5.53072
7.61081
5.28168
9.9164
14.7181
12.8704
15.9181
11.7655
13.7806
6.1131
8.46945
5.13981
10.7536
16.5698
13.8946
17.4374
11.9225
14.1534
4.35746
6.96245
2.55823
9.04546
15.7085
11.9893
15.7825
8.97241
13.9291
-24.6301
7.28935
-34.2958
-6.47008
21.2386
-14.2978
20.3516
-21.0267
18.0043
-41.8309
-4.20481
-40.9478
-10.0115
-38.0228
-14.6837
8.10439
-20.2991
7.55905
-34.1403
-6.99748
-32.5589
-10.1746
-29.519
-12.6179
3.80456
-15.6921
4.04876
-24.2916
-5.48138
-22.2507
-8.1333
5.43841
-9.45936
6.69535
-10.5004
7.24998
-17.7863
-0.986395
-15.8248
-3.04656
9.41567
-4.05338
11.2253
-5.11281
12.3694
-12.9415
4.47889
-11.6377
3.484
-9.76417
2.48158
14.9592
0.409382
16.541
-7.17948
9.36175
-6.35959
7.14199
20.8792
5.44923
23.3083
3.22832
24.5097
-7.48097
14.04
-7.11198
10.2898
27.9627
7.26899
30.274
3.61434
30.9533
-10.8786
16.6119
-10.952
11.0444
33.2559
6.53026
35.2414
1.40211
35.1973
-16.9787
16.6386
-17.4831
8.96023
35.356
2.06542
35.2362
-9.47901
24.4085
29021.8
28974.8
28927.3
28879.1
28830.5
28781.4
28731.8
28681.9
28631.6
28581.1
28530.3
28479.3
28428.2
28377
28325.7
0.934867
0.88259
0.824595
0.761906
0.695747
0.627381
0.557966
0.488464
0.419593
0.351816
0.285363
0.22026
0.156366
0.0934195
0.031072
1.56511
1.47723
1.37944
1.27361
1.16197
1.04675
0.930005
0.81338
0.698086
0.584878
0.4741
0.36575
0.259552
0.155026
0.0515559
2.20638
2.08168
1.94223
1.79105
1.63167
1.46757
1.30183
1.13688
0.974424
0.815455
0.660368
0.509062
0.361049
0.215568
0.0716763
2.86438
2.70085
2.51671
2.31666
2.10604
1.88996
1.6728
1.45782
1.2472
1.04209
0.84281
0.649045
0.459989
0.274509
0.091252
3.54619
3.34064
3.10711
2.85284
2.58582
2.31339
2.04149
1.77431
1.51436
1.2628
1.01967
0.78427
0.555324
0.331208
0.110068
4.2612
4.00858
3.71835
3.40188
3.07108
2.73633
2.40546
2.08349
1.77306
1.47497
1.18873
0.912976
0.645787
0.384905
0.127871
5.02207
4.71432
4.35602
3.96541
3.56046
3.15557
2.76061
2.38113
2.01935
1.67521
1.34722
1.03304
0.729893
0.434722
0.144371
5.84654
5.4705
5.0259
4.54321
4.04981
3.56505
3.10045
2.66115
2.24799
1.85923
1.4918
1.14201
0.805961
0.479684
0.159248
6.76114
6.29442
5.73324
5.13118
4.53005
3.95428
3.41509
2.91517
2.45227
2.02189
1.61867
1.23718
0.872197
0.518768
0.17217
7.81106
7.21173
6.48059
5.71743
4.98397
4.30631
3.69033
3.13217
2.62408
2.15736
1.72374
1.31577
0.926825
0.550987
0.182821
9.08794
8.26139
7.26034
6.27448
5.38165
4.59609
3.90744
3.29902
2.75447
2.2597
1.80312
1.37527
0.968295
0.575502
0.190936
10.8079
9.48552
8.02451
6.73908
5.6722
4.78871
4.04412
3.40191
2.83503
2.32379
1.8537
1.41382
0.99553
0.591752
0.19634
13.5541
10.8475
8.61204
6.98464
5.77901
4.84219
4.07827
3.42942
2.8599
2.34665
1.874
1.4307
1.0082
0.599598
0.198997
18.598
11.7378
8.59171
6.8082
5.61653
4.72241
3.99723
3.37754
2.82844
2.32883
1.86486
1.42669
1.00689
0.599406
0.199029
-0.206334
-0.621287
-1.04321
-1.47715
-1.92881
-2.40501
-2.91436
-3.46841
-4.08376
-4.78626
-5.62018
-6.67019
-8.1203
-10.4277
-14.8695
-0.204231
-0.614659
-1.03106
-1.45763
-1.89897
-2.3602
-2.84729
-3.36728
-3.92859
-4.54095
-5.21365
-5.94566
-6.67843
-7.077
-5.50197
-0.200751
-0.603854
-1.01178
-1.4278
-1.85523
-2.29737
-2.75731
-3.23739
-3.73785
-4.25354
-4.76571
-5.22047
-5.46858
-5.09622
-2.99033
-0.196146
-0.589665
-0.986838
-1.38999
-1.80121
-2.22211
-2.65329
-3.09328
-3.5364
-3.96832
-4.35744
-4.63884
-4.68938
-4.31903
-3.47721
-0.190678
-0.572906
-0.957689
-1.3465
-1.7404
-2.13965
-2.5431
-2.94695
-3.34258
-3.71252
-4.02371
-4.21767
-4.2019
-3.8692
-3.29526
-0.184595
-0.554343
-0.925691
-1.29941
-1.67579
-2.05421
-2.43258
-2.80629
-3.16648
-3.49723
-3.77108
-3.94235
-3.93406
-3.58675
-2.37784
-0.178113
-0.534639
-0.891989
-1.25042
-1.60968
-1.96874
-2.32526
-2.67498
-3.01075
-3.32119
-3.58931
-3.79177
-3.90132
-3.90245
-3.92331
-0.17141
-0.514331
-0.857485
-1.20076
-1.54364
-1.88494
-2.22259
-2.55334
-2.87255
-3.17435
-3.45281
-3.70568
-3.9436
-4.20427
-4.54371
-0.164626
-0.493832
-0.822844
-1.15132
-1.4786
-1.80359
-2.12464
-2.43966
-2.7464
-3.04361
-3.33382
-3.62985
-3.96985
-4.45116
-5.3219
-0.157863
-0.47344
-0.788528
-1.10264
-1.41508
-1.72487
-2.0308
-2.33165
-2.62679
-2.91762
-3.21056
-3.52333
-3.89778
-4.42736
-5.33462
-0.151193
-0.453362
-0.754844
-1.05507
-1.35333
-1.64875
-1.9404
-2.22751
-2.5101
-2.79004
-3.07335
-3.37382
-3.71778
-4.14106
-4.62489
-0.144666
-0.433735
-0.72199
-1.00881
-1.29347
-1.57517
-1.85306
-2.12645
-2.39513
-2.66001
-2.92406
-3.19397
-3.4825
-3.8125
-4.23766
-0.138315
-0.414651
-0.690094
-0.96399
-1.23561
-1.50415
-1.76875
-2.02855
-2.28272
-2.53042
-2.77054
-3.00105
-3.21823
-3.41766
-3.59436
-0.132158
-0.396165
-0.659236
-0.920699
-1.17982
-1.4358
-1.68771
-1.93448
-2.17469
-2.40595
-2.62354
-2.81728
-2.96609
-3.03842
-3.08495
-0.126207
-0.378308
-0.629457
-0.878983
-1.12616
-1.37019
-1.61015
-1.8449
-2.07277
-2.29083
-2.49296
-2.66459
-2.76688
-2.67694
-1.91154
-0.120467
-0.361089
-0.600769
-0.83885
-1.07463
-1.30735
-1.53615
-1.76001
-1.97756
-2.18666
-2.38339
-2.55996
-2.701
-2.78438
-2.86141
-0.114936
-0.344505
-0.573159
-0.800267
-1.02517
-1.24716
-1.46551
-1.67943
-1.88815
-2.09096
-2.28767
-2.47988
-2.67502
-2.89609
-3.19318
-0.109609
-0.328536
-0.54659
-0.763173
-0.977667
-1.18944
-1.39787
-1.60241
-1.80275
-1.99939
-2.19493
-2.39768
-2.63086
-2.95486
-3.52043
-0.104476
-0.313156
-0.521012
-0.727485
-0.932003
-1.13399
-1.33288
-1.52822
-1.71986
-1.90848
-2.09703
-2.29423
-2.52349
-2.84572
-3.42576
-0.0995278
-0.298329
-0.496364
-0.693114
-0.888047
-1.08062
-1.27029
-1.45654
-1.63897
-1.81753
-1.99302
-2.1684
-2.35142
-2.55741
-2.7877
-0.09475
-0.284016
-0.472581
-0.659966
-0.845682
-1.02922
-1.21001
-1.38744
-1.56071
-1.72862
-1.88897
-2.03716
-2.16328
-2.2521
-2.34616
-0.0901287
-0.270175
-0.449589
-0.627941
-0.804787
-0.979657
-1.15202
-1.32118
-1.48611
-1.64486
-1.79326
-1.92118
-2.0009
-1.94304
-1.39327
-0.0856482
-0.256758
-0.427309
-0.596924
-0.765221
-0.931794
-1.09619
-1.2578
-1.41572
-1.56819
-1.71166
-1.83859
-1.93395
-1.97547
-1.99364
-0.081292
-0.243714
-0.405653
-0.56679
-0.726809
-0.885397
-1.04223
-1.19694
-1.34904
-1.49769
-1.64144
-1.77786
-1.90428
-2.02403
-2.17196
-0.0770432
-0.230992
-0.384531
-0.537399
-0.689352
-0.840174
-0.989703
-1.13785
-1.28469
-1.43051
-1.57622
-1.72401
-1.87912
-2.05293
-2.26601
-0.0728852
-0.21854
-0.363853
-0.508614
-0.65264
-0.795806
-0.938084
-1.07963
-1.22098
-1.36335
-1.50946
-1.66498
-1.8409
-2.05445
-2.31321
-0.0688031
-0.206313
-0.343538
-0.480309
-0.616491
-0.752013
-0.886928
-1.02151
-1.1565
-1.29351
-1.43608
-1.59171
-1.77644
-2.02447
-2.41087
-0.0647839
-0.19427
-0.323518
-0.452385
-0.580764
-0.708603
-0.835958
-0.963074
-1.09056
-1.21976
-1.35354
-1.49816
-1.66792
-1.89832
-2.29213
-0.0608172
-0.182382
-0.303742
-0.424775
-0.545379
-0.665493
-0.785113
-0.904331
-1.02339
-1.14277
-1.26341
-1.38708
-1.51722
-1.6586
-1.79722
-0.0568952
-0.170625
-0.284176
-0.397437
-0.510305
-0.622691
-0.734511
-0.84566
-0.955938
-1.06484
-1.17109
-1.27146
-1.35863
-1.42071
-1.48073
-0.0530116
-0.158982
-0.264795
-0.370348
-0.475537
-0.58025
-0.68434
-0.787557
-0.889396
-0.988707
-1.08278
-1.16496
-1.21739
-1.1842
-0.848531
-0.0491613
-0.147438
-0.245578
-0.343489
-0.441072
-0.538211
-0.634741
-0.730378
-0.824567
-0.91615
-1.00268
-1.07908
-1.13554
-1.15768
-1.1617
-0.0453395
-0.13598
-0.226505
-0.316836
-0.406889
-0.496566
-0.585731
-0.674172
-0.761511
-0.847051
-0.92954
-1.00701
-1.07745
-1.1437
-1.23344
-0.0415414
-0.124593
-0.207552
-0.290357
-0.372944
-0.455248
-0.537195
-0.618701
-0.69967
-0.780023
-0.859832
-0.939764
-1.02222
-1.11333
-1.2229
-0.037762
-0.113262
-0.188693
-0.26401
-0.339172
-0.414151
-0.488938
-0.563575
-0.638224
-0.713329
-0.789984
-0.870725
-0.960934
-1.0701
-1.20796
-0.0339963
-0.101972
-0.1699
-0.237752
-0.305506
-0.373163
-0.440758
-0.508413
-0.576432
-0.645519
-0.717248
-0.79507
-0.886428
-1.00688
-1.18755
-0.0302396
-0.0907086
-0.151148
-0.211544
-0.271888
-0.332194
-0.392511
-0.452971
-0.513868
-0.575839
-0.640235
-0.709978
-0.791667
-0.901798
-1.09152
-0.0264876
-0.0794581
-0.132416
-0.185356
-0.238278
-0.291194
-0.344141
-0.397199
-0.450531
-0.504437
-0.559466
-0.616555
-0.677106
-0.741397
-0.792762
-0.0227365
-0.0682099
-0.113685
-0.159165
-0.204652
-0.250152
-0.295671
-0.341215
-0.386765
-0.432222
-0.477224
-0.520698
-0.559902
-0.589931
-0.619442
-0.0189828
-0.056954
-0.0949418
-0.132956
-0.171001
-0.209077
-0.247164
-0.285202
-0.323039
-0.360289
-0.396003
-0.42778
-0.449027
-0.438789
-0.315668
-0.0152233
-0.0456807
-0.0761705
-0.106711
-0.137313
-0.167976
-0.19867
-0.22931
-0.259695
-0.289389
-0.317482
-0.342148
-0.359976
-0.366006
-0.3648
-0.0114542
-0.0343795
-0.0573549
-0.0804102
-0.103568
-0.126836
-0.150195
-0.173575
-0.196809
-0.219573
-0.241303
-0.261241
-0.279083
-0.298218
-0.339711
-0.0076715
-0.0230382
-0.0384752
-0.0540267
-0.069731
-0.0856158
-0.101689
-0.117922
-0.134229
-0.150445
-0.166336
-0.181765
-0.197256
-0.214871
-0.235209
-0.00387071
-0.011643
-0.0195078
-0.0275257
-0.0357549
-0.0442492
-0.0530538
-0.0621993
-0.0716935
-0.0815181
-0.0916554
-0.102221
-0.113921
-0.1296
-0.161908
-4.6853e-05
-0.000178865
-0.000426307
-0.000867223
-0.00158151
-0.00265203
-0.00416617
-0.00621791
-0.0089094
-0.01235
-0.0166476
-0.0218625
-0.0277895
-0.032749
-0.0263125
0.00380513
0.0113699
0.0187969
0.0259912
0.0328518
0.0392677
0.0451104
0.0502242
0.0544136
0.0574363
0.0590252
0.0590149
0.057701
0.0562206
0.0517622
0.0076902
0.0230184
0.0381887
0.0530909
0.0676059
0.081599
0.0949079
0.107324
0.118565
0.128241
0.135836
0.14082
0.143338
0.14729
0.173187
0.0116129
0.0347807
0.0577734
0.0804685
0.102734
0.124418
0.145339
0.165255
0.183822
0.200513
0.214485
0.22436
0.228008
0.223148
0.214644
0.015577
0.0466685
0.077571
0.108153
0.138275
0.16778
0.196481
0.224137
0.250397
0.274696
0.296005
0.312244
0.318614
0.301563
0.209819
0.0195857
0.0586911
0.0975968
0.136166
0.174255
0.211711
0.248362
0.284001
0.318351
0.350976
0.381069
0.406998
0.425513
0.431871
0.432714
0.0236416
0.0708558
0.117862
0.16452
0.210685
0.256213
0.300956
0.344772
0.387518
0.429033
0.46905
0.506919
0.540881
0.56603
0.564619
0.0277465
0.083168
0.138375
0.193222
0.247567
0.301269
0.354206
0.406298
0.457553
0.50815
0.558545
0.609571
0.662394
0.718659
0.787169
0.0319019
0.0956324
0.159142
0.222281
0.284903
0.346865
0.408053
0.468415
0.528059
0.587425
0.647626
0.710994
0.781542
0.862811
0.936212
0.0361094
0.108253
0.18017
0.251707
0.322705
0.393009
0.462481
0.531042
0.598769
0.666135
0.73453
0.807451
0.89327
1.01245
1.22215
0.0403698
0.121034
0.201467
0.281511
0.360996
0.43974
0.517553
0.594256
0.669742
0.744148
0.818309
0.894967
0.981853
1.09926
1.29575
0.0446838
0.133976
0.223039
0.31171
0.399808
0.487123
0.573402
0.658324
0.741477
0.822344
0.900374
0.975398
1.04926
1.13118
1.25005
0.0490507
0.14708
0.244887
0.342312
0.439169
0.535234
0.630201
0.723629
0.81481
0.902525
0.984544
1.05665
1.1111
1.13747
1.15633
0.0534688
0.160339
0.267003
0.373311
0.479087
0.584111
0.688076
0.790501
0.890559
0.986675
1.07561
1.15018
1.19244
1.14901
0.814982
0.0579342
0.173743
0.289369
0.404682
0.519531
0.633729
0.747023
0.859023
0.969053
1.07582
1.17668
1.26614
1.33332
1.36235
1.37361
0.0624414
0.187274
0.311956
0.436379
0.56043
0.683979
0.806873
0.928917
1.04982
1.16908
1.28569
1.39759
1.50072
1.58805
1.64299
0.0669837
0.200912
0.334722
0.468337
0.601679
0.734685
0.867317
0.999606
1.13173
1.26418
1.39797
1.53512
1.67911
1.83626
2.02761
0.0715534
0.214632
0.357626
0.500484
0.643165
0.785653
0.928
1.07041
1.21343
1.35834
1.50795
1.66792
1.84836
2.06074
2.27825
0.0761427
0.22841
0.380625
0.532756
0.684784
0.836719
0.988638
1.14079
1.29381
1.44925
1.61073
1.78651
1.99545
2.28167
2.7612
0.0807444
0.242225
0.403681
0.565098
0.726467
0.887793
1.04911
1.21056
1.37251
1.53597
1.70357
1.88209
2.08888
2.36836
2.83281
0.0853517
0.256056
0.426762
0.597471
0.768178
0.938869
1.1095
1.27998
1.45016
1.61981
1.78884
1.95802
2.13184
2.3266
2.58206
0.089958
0.269884
0.449839
0.629841
0.809897
0.98998
1.16998
1.34961
1.52817
1.70409
1.87399
2.03074
2.16026
2.24268
2.31872
0.0945568
0.28369
0.472881
0.662171
0.851591
1.04114
1.23072
1.41998
1.608
1.79254
1.96827
2.12235
2.22138
2.16321
1.55242
0.0991415
0.297452
0.495851
0.694404
0.893188
1.09227
1.29166
1.4912
1.69025
1.8871
2.07756
2.2522
2.39167
2.46748
2.5181
0.103706
0.311151
0.518707
0.726469
0.934569
1.14318
1.3525
1.56274
1.77401
1.98608
2.19784
2.40643
2.60617
2.78923
2.9447
0.108245
0.32477
0.541413
0.758292
0.975586
1.19357
1.41268
1.63355
1.8572
2.08524
2.32031
2.56681
2.83223
3.13011
3.49752
0.112758
0.338302
0.563949
0.789816
1.01611
1.24318
1.47161
1.70241
1.93733
2.17952
2.43481
2.71401
3.03572
3.42269
3.84427
0.117248
0.351758
0.586322
0.821032
1.05608
1.29182
1.52888
1.7684
2.01239
2.26466
2.53267
2.83166
3.19387
3.69121
4.50412
0.121728
0.36517
0.608583
0.852001
1.09555
1.33952
1.58443
1.83124
2.08166
2.33884
2.609
2.90537
3.25814
3.74054
4.54034
0.126216
0.378596
0.630829
0.882862
1.13472
1.38654
1.63863
1.89156
2.14621
2.40396
2.66709
2.93989
3.23233
3.56941
3.99411
0.130739
0.392116
0.6532
0.913827
1.17389
1.43334
1.69223
1.95065
2.20856
2.46532
2.71842
2.96071
3.17549
3.33737
3.51144
0.135328
0.40583
0.675873
0.945168
1.21345
1.4805
1.74612
2.01005
2.27168
2.52918
2.77719
3.0006
3.15531
3.09682
2.24788
0.140021
0.419853
0.69905
0.97719
1.25385
1.52863
1.80114
2.07101
2.33762
2.59956
2.853
3.08814
3.28314
3.40512
3.51681
0.144857
0.434304
0.722945
1.01021
1.29552
1.57829
1.85797
2.13418
2.40676
2.6758
2.94145
3.2035
3.4616
3.72051
4.00624
0.149873
0.449305
0.747772
1.04457
1.33893
1.63005
1.91717
2.19984
2.47831
2.75432
3.03231
3.32154
3.6394
4.01719
4.51681
0.155104
0.464963
0.773736
1.08059
1.38456
1.68453
1.9794
2.26835
2.55151
2.83139
3.11529
3.4196
3.77548
4.22916
4.792
0.160574
0.48136
0.801009
1.11859
1.43291
1.74252
2.04571
2.34081
2.62694
2.90559
3.18401
3.48177
3.84355
4.36521
5.25788
0.166288
0.49853
0.829693
1.1588
1.4845
1.80492
2.11757
2.41945
2.70748
2.97987
3.2392
3.49938
3.80047
4.2435
5.09417
0.172229
0.516433
0.859774
1.20134
1.53971
1.87264
2.19684
2.50763
2.79882
3.06312
3.2937
3.48848
3.6587
3.83857
4.04431
0.178341
0.534916
0.891052
1.24607
1.59863
1.94638
2.28537
2.60934
2.90875
3.16969
3.37296
3.49452
3.51012
3.41552
3.34494
0.184522
0.553681
0.923074
1.29245
1.66085
2.02614
2.38425
2.72803
3.04533
3.31622
3.50884
3.57405
3.43791
2.97566
1.83283
0.190614
0.572263
0.955073
1.33945
1.72516
2.1108
2.49303
2.86503
3.21406
3.517
3.73307
3.79333
3.592
3.0083
2.0726
0.196406
0.590015
0.985942
1.38548
1.78945
2.19778
2.60883
3.01791
3.41472
3.778
4.06539
4.19414
4.01146
3.28524
1.94589
0.201637
0.606131
1.01426
1.42838
1.85063
2.28282
2.72592
3.17927
3.63857
4.09162
4.50774
4.81107
4.80817
3.98778
0.996376
0.206012
0.619693
1.03839
1.46556
1.90485
2.36019
2.83584
3.33641
3.86672
4.43077
5.02825
5.64047
6.17235
6.19784
3.78717
0.209225
0.629746
1.05658
1.49425
1.94785
2.42338
2.92837
3.47287
4.07139
4.74665
5.53838
6.52536
7.8878
10.0999
14.5977
14.2044
9.63755
7.46202
6.15285
5.21625
4.46919
3.83333
3.27004
2.75757
2.28221
1.8345
1.40737
0.995182
0.593168
0.197075
3.02698
5.62269
5.70766
5.25369
4.70068
4.15099
3.62741
3.13268
2.66427
2.21834
1.7909
1.37818
0.976624
0.582889
0.193786
0.0936973
3.35121
4.32737
4.42312
4.18263
3.81451
3.40134
2.97698
2.5553
2.14154
1.73702
1.34119
0.952593
0.569366
0.189422
0.871191
2.66391
3.55827
3.82588
3.75304
3.50917
3.18297
2.81933
2.44075
2.05827
1.67705
1.2991
0.924792
0.553539
0.184284
1.61364
2.60032
3.22423
3.46491
3.44203
3.26087
2.9905
2.67201
2.32884
1.97406
1.61473
1.25445
0.894824
0.5363
0.178658
2.09739
2.78849
3.15615
3.28681
3.2408
3.07441
2.83136
2.54174
2.22493
1.89294
1.553
1.20928
0.864054
0.518423
0.172795
3.19954
3.20107
3.25249
3.23126
3.12301
2.94107
2.70448
2.43028
2.13148
1.81729
1.49384
1.16511
0.833525
0.500522
0.166898
3.76969
3.5788
3.39913
3.23602
3.05625
2.84557
2.60363
2.33582
2.04867
1.74799
1.4383
1.12287
0.803945
0.483029
0.161111
4.73332
3.94857
3.53409
3.25222
3.01082
2.77166
2.52067
2.25471
1.97518
1.68489
1.38669
1.083
0.775715
0.466213
0.155528
4.88423
4.061
3.57683
3.2402
2.96372
2.70588
2.448
2.18295
1.90911
1.62721
1.33883
1.0456
0.748991
0.450199
0.150195
4.45878
3.9378
3.51697
3.18629
2.90357
2.64001
2.38024
2.11724
1.84856
1.57399
1.29428
1.0105
0.723754
0.435008
0.145126
4.20748
3.7449
3.39437
3.09897
2.83
2.57143
2.31464
2.05541
1.79206
1.52428
1.25251
0.977437
0.699875
0.420591
0.140307
3.74081
3.47407
3.23336
2.99321
2.74911
2.50152
2.25067
1.99639
1.73857
1.47731
1.21297
0.946068
0.677165
0.406854
0.13571
3.28811
3.18504
3.07187
2.89008
2.67054
2.43379
2.18901
1.93978
1.68741
1.43243
1.17519