/*--------------------------------*- C++ -*----------------------------------*\
| =========                 |                                                 |
| \\      /  F ield         | OpenFOAM: The Open Source CFD Toolbox           |
|  \\    /   O peration     | Version:  5.x                                   |
|   \\  /    A nd           | Web:      www.OpenFOAM.org                      |
|    \\/     M anipulation  |                                                 |
\*---------------------------------------------------------------------------*/
FoamFile
{
    version     2.0;
    format      ascii;
    class       volScalarField;
    location    "1.7";
    object      gradTx;
}
// * * * * * * * * * * * * * * * * * * * * * * * * * * * * * * * * * * * * * //

dimensions      [0 -1 0 1 0 0 0];

internalField   nonuniform List<scalar> 
6300
(
-51.3314
-51.2913
-51.2109
-51.09
-50.9282
-50.7252
-50.4807
-50.1946
-49.8673
-49.4992
-49.0915
-48.6458
-48.1643
-47.6494
-47.1037
-51.371
-51.331
-51.2509
-51.1303
-50.9688
-50.7661
-50.5217
-50.2355
-49.9075
-49.5383
-49.129
-48.6812
-48.1973
-47.6798
-47.1317
-51.4501
-51.4104
-51.3308
-51.211
-51.0503
-50.8482
-50.6041
-50.3176
-49.9884
-49.6171
-49.2045
-48.7524
-48.2634
-47.7405
-47.1875
-51.5682
-51.529
-51.4504
-51.3319
-51.1726
-50.9718
-50.7284
-50.4417
-50.1111
-49.7366
-49.319
-48.8601
-48.3627
-47.831
-47.2696
-51.725
-51.6866
-51.6095
-51.493
-51.336
-51.1373
-50.8955
-50.6092
-50.2772
-49.8988
-49.4744
-49.0057
-48.4961
-47.9508
-47.3763
-51.9196
-51.8823
-51.8074
-51.6939
-51.5405
-51.3454
-51.1066
-50.8219
-50.4891
-50.1065
-49.6737
-49.1918
-48.6648
-48.0992
-47.5047
-52.1508
-52.1152
-52.0434
-51.9342
-51.7861
-51.5967
-51.3631
-51.0821
-50.7501
-50.364
-49.9215
-49.4227
-48.8714
-48.2762
-47.651
-52.4171
-52.3836
-52.316
-52.213
-52.0724
-51.8915
-51.6665
-51.3927
-51.0649
-50.6773
-50.2251
-49.7057
-49.1216
-48.483
-47.8098
-52.7163
-52.6856
-52.6235
-52.5286
-52.3985
-52.2299
-52.018
-51.7569
-51.4389
-51.0549
-50.5955
-50.053
-49.4258
-48.7239
-47.9751
-53.0455
-53.0183
-52.9633
-52.8789
-52.7626
-52.6109
-52.4183
-52.1775
-51.8782
-51.5073
-51.0484
-50.4847
-49.8042
-49.0113
-48.1418
-53.4013
-53.3783
-53.3318
-53.2603
-53.1616
-53.0321
-52.8663
-52.6559
-52.3888
-52.0471
-51.6057
-51.0327
-50.2947
-49.3749
-48.31
-53.7793
-53.7612
-53.7246
-53.6683
-53.5908
-53.489
-53.3581
-53.1906
-52.9735
-52.6861
-52.2942
-51.7453
-50.9662
-49.8831
-48.4964
-54.1748
-54.162
-54.1363
-54.0971
-54.0436
-53.9742
-53.8862
-53.7741
-53.6281
-53.4289
-53.1392
-52.6873
-51.9412
-50.6943
-48.7661
-54.5824
-54.5751
-54.5607
-54.5394
-54.5116
-54.4776
-54.4377
-54.3912
-54.3353
-54.2616
-54.1459
-53.9226
-53.4163
-52.1863
-49.3547
-54.9965
-54.9946
-54.9913
-54.9876
-54.9851
-54.9863
-54.9951
-55.0169
-55.0599
-55.1357
-55.2595
-55.4399
-55.6144
-55.2793
-51.4196
-46.5793
-46.0822
-45.5671
-45.0343
-44.4838
-43.9151
-43.3275
-42.7207
-42.0943
-41.4486
-40.7843
-40.1031
-39.4068
-38.698
-37.9798
-37.2553
-36.5277
-35.8007
-35.0775
-34.3617
-33.6565
-32.9654
-32.2914
-31.6374
-31.0063
-30.4002
-29.8213
-29.2713
-28.7514
-28.2628
-27.806
-27.3815
-26.9895
-26.6298
-26.3023
-26.0066
-25.7424
-25.5091
-25.3064
-25.1337
-24.9907
-24.8769
-24.7919
-24.7355
-24.7075
-24.7079
-24.737
-24.795
-24.8826
-25.0003
-25.1486
-25.3282
-25.5393
-25.7822
-26.0568
-26.3629
-26.7
-27.0672
-27.4637
-27.8882
-28.3393
-28.8156
-29.3156
-29.8376
-30.3801
-30.9414
-31.52
-32.1142
-32.7223
-33.3426
-33.9735
-34.6133
-35.2605
-35.9134
-36.5709
-37.2313
-37.8933
-38.5556
-39.2167
-39.8755
-40.5305
-41.1807
-41.8249
-42.4619
-43.0906
-43.7094
-44.3168
-44.9109
-45.4894
-46.05
-46.6057
-46.1076
-45.5922
-45.0597
-44.5098
-43.9419
-43.3552
-42.7487
-42.122
-41.4751
-40.8089
-40.1247
-39.4247
-38.7118
-37.989
-37.2597
-36.5273
-35.7953
-35.0672
-34.3465
-33.6367
-32.941
-32.2628
-31.605
-30.9705
-30.3615
-29.7803
-29.2283
-28.707
-28.2174
-27.76
-27.3354
-26.9434
-26.5841
-26.2571
-25.962
-25.6984
-25.4658
-25.2637
-25.0917
-24.9494
-24.8361
-24.7516
-24.6954
-24.6673
-24.6674
-24.6959
-24.7532
-24.8399
-24.9568
-25.1044
-25.2834
-25.4942
-25.7371
-26.0121
-26.3189
-26.6571
-27.0257
-27.4239
-27.8503
-28.3036
-28.7821
-29.2843
-29.8085
-30.3533
-30.9169
-31.4978
-32.0944
-32.7049
-33.3276
-33.9608
-34.6029
-35.2521
-35.9072
-36.5665
-37.2289
-37.8929
-38.557
-39.2201
-39.8806
-40.5373
-41.1891
-41.8349
-42.4736
-43.1043
-43.7255
-44.3356
-44.9327
-45.5146
-46.0787
-46.6578
-46.1577
-45.6416
-45.1097
-44.5615
-43.9958
-43.411
-42.8057
-42.1786
-41.5296
-40.8591
-40.1689
-39.4614
-38.7398
-38.0077
-37.2686
-36.5263
-35.7844
-35.0465
-34.316
-33.5966
-32.8918
-32.2051
-31.5396
-30.8982
-30.2835
-29.6974
-29.1416
-28.6175
-28.126
-27.6676
-27.2426
-26.851
-26.4925
-26.1666
-25.8727
-25.6104
-25.3792
-25.1784
-25.0078
-24.8667
-24.7547
-24.671
-24.6153
-24.5873
-24.5868
-24.6141
-24.6698
-24.7547
-24.8696
-25.0156
-25.1934
-25.4036
-25.6466
-25.9223
-26.2305
-26.5708
-26.9423
-27.344
-27.7744
-28.2319
-28.7149
-29.2216
-29.7504
-30.2997
-30.8679
-31.4535
-32.0549
-32.6702
-33.2978
-33.9356
-34.5821
-35.2356
-35.8947
-36.558
-37.2242
-37.8921
-38.5601
-39.2269
-39.8909
-40.5509
-41.2058
-41.8546
-42.4967
-43.1312
-43.757
-44.3726
-44.976
-45.5649
-46.1363
-46.7338
-46.2304
-45.7133
-45.183
-44.6382
-44.0769
-43.4963
-42.8937
-42.2669
-41.6148
-40.9379
-40.2381
-39.5185
-38.7832
-38.0364
-37.2824
-36.525
-35.7681
-35.0152
-34.2699
-33.5359
-32.817
-32.1172
-31.4398
-30.7881
-30.1645
-29.5713
-29.0099
-28.4817
-27.9874
-27.5276
-27.1024
-26.7116
-26.3546
-26.0305
-25.7387
-25.4785
-25.2492
-25.0506
-24.882
-24.7431
-24.633
-24.551
-24.4963
-24.4683
-24.4668
-24.4921
-24.5451
-24.6268
-24.7386
-24.8818
-25.0575
-25.2666
-25.5094
-25.7862
-26.0966
-26.4402
-26.8162
-27.2233
-27.6599
-28.1242
-28.6141
-29.1277
-29.6633
-30.2192
-30.7942
-31.3868
-31.9955
-32.6183
-33.2532
-33.8983
-34.5515
-35.2112
-35.8761
-36.5451
-37.2171
-37.8909
-38.5649
-39.2375
-39.9069
-40.5716
-41.2308
-41.8838
-42.5303
-43.1701
-43.8026
-44.4265
-45.0398
-45.6396
-46.2226
-46.8309
-46.3222
-45.804
-45.2767
-44.7384
-44.1855
-43.6132
-43.0165
-42.3914
-41.7356
-41.0495
-40.3356
-39.5983
-38.8431
-38.0757
-37.3009
-36.5233
-35.7462
-34.9732
-34.2076
-33.4535
-32.7152
-31.9972
-31.3035
-30.6377
-30.0024
-29.3997
-28.831
-28.2974
-27.7996
-27.3383
-26.9134
-26.5242
-26.1697
-25.8487
-25.5599
-25.3025
-25.076
-24.88
-24.7144
-24.5786
-24.4717
-24.3925
-24.3395
-24.3119
-24.309
-24.3312
-24.3797
-24.4562
-24.563
-24.7018
-24.8744
-25.0817
-25.3242
-25.6022
-25.9155
-26.2636
-26.6458
-27.0606
-27.5062
-27.98
-28.4796
-29.0026
-29.5471
-30.1118
-30.6956
-31.2975
-31.9159
-32.549
-33.1944
-33.8493
-34.5116
-35.1794
-35.8518
-36.528
-37.2076
-37.8893
-38.5717
-39.2525
-39.9293
-40.6002
-41.2645
-41.9219
-42.5732
-43.2192
-43.8602
-44.4953
-45.1223
-45.7379
-46.3377
-46.9441
-46.4273
-45.9077
-45.386
-44.8595
-44.3219
-43.765
-43.1801
-42.5598
-41.9002
-41.2012
-40.4668
-39.704
-38.9209
-38.1254
-37.3239
-36.5208
-35.7188
-34.9206
-34.1292
-33.3488
-32.5846
-31.8425
-31.1275
-30.4437
-29.7939
-29.1797
-28.602
-28.0618
-27.5601
-27.0973
-26.6734
-26.2873
-25.9373
-25.621
-25.3366
-25.0828
-24.8593
-24.6664
-24.5044
-24.3731
-24.2712
-24.1967
-24.1472
-24.1205
-24.1157
-24.1331
-24.1745
-24.243
-24.3418
-24.4741
-24.6419
-24.8466
-25.0886
-25.368
-25.6848
-26.0386
-26.429
-26.8544
-27.3123
-27.7993
-28.3119
-28.8469
-29.4024
-29.9773
-30.5714
-31.1845
-31.8156
-32.4625
-33.1219
-33.79
-34.4637
-35.1412
-35.8218
-36.5062
-37.1947
-37.8869
-38.5807
-39.2729
-39.9598
-40.6384
-41.3076
-41.9684
-42.6233
-43.2752
-43.9259
-44.5753
-45.2209
-45.8582
-46.4816
-47.0662
-46.536
-46.014
-45.5021
-44.9961
-44.4859
-43.9571
-43.3943
-42.7848
-42.1213
-41.4037
-40.639
-39.8388
-39.0165
-38.184
-37.3495
-36.5167
-35.6863
-34.8585
-34.0351
-33.2208
-32.4227
-31.649
-30.9068
-30.2013
-29.5347
-28.9074
-28.3196
-27.7716
-27.2648
-26.8007
-26.3794
-25.9992
-25.6568
-25.3481
-25.0698
-24.8202
-24.5993
-24.4091
-24.2511
-24.126
-24.0321
-23.9658
-23.9226
-23.8985
-23.8912
-23.9011
-23.9313
-23.9868
-24.0733
-24.1957
-24.357
-24.5585
-24.7999
-25.0808
-25.4012
-25.7617
-26.1624
-26.6019
-27.0769
-27.5822
-28.1123
-28.6624
-29.2301
-29.8154
-30.4201
-31.0459
-31.6929
-32.3583
-33.037
-33.7228
-34.4108
-35.0985
-35.7867
-36.4783
-37.1765
-37.882
-38.5921
-39.301
-40.002
-40.6897
-41.3625
-42.0231
-42.6774
-43.3324
-43.993
-44.6602
-45.3307
-45.9981
-46.6542
-47.1857
-46.6326
-46.1055
-45.6094
-45.1388
-44.6766
-44.198
-43.6758
-43.0874
-42.4201
-41.6742
-40.8624
-40.0055
-39.1268
-38.2455
-37.3727
-36.5092
-35.6503
-34.7902
-33.9281
-33.0698
-32.2261
-31.4103
-30.6338
-29.9031
-29.2191
-28.579
-27.9801
-27.4224
-26.9088
-26.4431
-26.0268
-25.6573
-25.3283
-25.0322
-24.7625
-24.5166
-24.2961
-24.1058
-23.9511
-23.8345
-23.7538
-23.7023
-23.6713
-23.6529
-23.6425
-23.6405
-23.6522
-23.6867
-23.7539
-23.8618
-24.015
-24.2135
-24.4549
-24.7373
-25.0607
-25.4276
-25.8404
-26.2989
-26.7983
-27.3301
-27.8843
-28.453
-29.033
-29.6262
-30.2387
-30.8771
-31.5439
-32.2353
-32.942
-33.6527
-34.3583
-35.0551
-35.7466
-36.4412
-37.1478
-37.8704
-38.6049
-39.3403
-40.0631
-40.7624
-41.4349
-42.0863
-42.73
-43.381
-44.0502
-44.7398
-45.4445
-46.1538
-46.8555
-47.2854
-46.6913
-46.1521
-45.68
-45.269
-44.891
-44.5015
-44.0525
-43.5035
-42.832
-42.0396
-41.1506
-40.2036
-39.2407
-38.2952
-37.3824
-36.4956
-35.6159
-34.725
-33.8162
-32.8978
-31.9896
-31.1153
-30.2951
-29.5382
-28.8407
-28.1917
-27.5818
-27.0101
-26.4843
-26.0148
-25.6074
-25.2577
-24.9532
-24.6786
-24.4216
-24.1771
-23.9498
-23.7519
-23.5969
-23.4922
-23.4341
-23.4099
-23.4026
-23.3966
-23.3825
-23.3607
-23.3411
-23.3403
-23.3763
-23.4636
-23.6084
-23.8073
-24.0517
-24.3351
-24.6581
-25.0278
-25.4532
-25.9376
-26.4738
-27.046
-27.6357
-28.228
-28.8171
-29.4094
-30.0205
-30.6678
-31.3598
-32.0904
-32.8414
-33.5902
-34.3186
-35.0197
-35.7021
-36.3866
-37.0959
-37.8415
-38.6163
-39.3978
-40.1577
-40.8735
-41.5372
-42.1605
-42.7717
-43.4032
-44.0775
-44.7974
-45.551
-46.32
-47.0861
-47.3396
-46.6708
-46.1019
-45.6621
-45.3517
-45.1215
-44.8909
-44.5731
-44.0959
-43.4181
-42.5442
-41.5222
-40.4248
-39.3296
-38.2981
-37.3546
-36.472
-35.598
-34.6858
-33.7182
-32.7117
-31.7045
-30.743
-29.8657
-29.0881
-28.3931
-27.7483
-27.1288
-26.5323
-25.9791
-25.4977
-25.1054
-24.7934
-24.5355
-24.3005
-24.0633
-23.8136
-23.562
-23.337
-23.1711
-23.0833
-23.0662
-23.0939
-23.1329
-23.1527
-23.1344
-23.0783
-23.0037
-22.9414
-22.9255
-22.9832
-23.1247
-23.3361
-23.5929
-23.8768
-24.1887
-24.5484
-24.9817
-25.5024
-26.0978
-26.7372
-27.3839
-28.008
-28.5973
-29.1658
-29.7507
-30.3943
-31.1204
-31.9163
-32.7441
-33.5573
-34.3182
-35.0112
-35.6546
-36.2966
-36.9916
-37.7707
-38.6181
-39.4859
-40.3157
-41.0594
-41.6973
-42.2519
-42.7837
-43.3636
-44.0385
-44.8061
-45.6349
-46.4898
-47.3462
-47.311
-46.5059
-45.8654
-45.4571
-45.3187
-45.3523
-45.4054
-45.3233
-44.9772
-44.2866
-43.2619
-42.0026
-40.6428
-39.3266
-38.1745
-37.239
-36.4364
-35.6352
-34.7266
-33.6766
-32.5268
-31.3541
-30.2496
-29.2929
-28.5197
-27.8735
-27.2691
-26.6434
-25.9925
-25.3712
-24.8531
-24.4884
-24.252
-24.0855
-23.9261
-23.7237
-23.4534
-23.1364
-22.8379
-22.6336
-22.5732
-22.6348
-22.7624
-22.8914
-22.9644
-22.9417
-22.8235
-22.6495
-22.4768
-22.3693
-22.3829
-22.5411
-22.8003
-23.0957
-23.3789
-23.6513
-23.9637
-24.385
-24.96
-25.6593
-26.4185
-27.1651
-27.8387
-28.4078
-28.8991
-29.397
-30.0024
-30.7808
-31.6968
-32.6678
-33.6002
-34.4159
-35.0741
-35.6094
-36.1302
-36.7661
-37.6013
-38.5905
-39.6287
-40.5972
-41.3975
-41.9768
-42.3758
-42.726
-43.1865
-43.8656
-44.7263
-45.6805
-46.6571
-47.634
-47.1406
-46.1035
-45.294
-44.8631
-45.0375
-45.5543
-46.1145
-46.4531
-46.3544
-45.6359
-44.3175
-42.6275
-40.7983
-39.0875
-37.739
-36.9324
-36.399
-35.8273
-34.9715
-33.7789
-32.3751
-30.9058
-29.5439
-28.4564
-27.7688
-27.2942
-26.8211
-26.1949
-25.4108
-24.6151
-23.9882
-23.6871
-23.6108
-23.626
-23.6144
-23.4826
-23.1614
-22.6852
-22.2039
-21.8898
-21.8884
-22.1093
-22.4297
-22.7318
-22.9147
-22.8873
-22.6501
-22.2942
-21.9192
-21.6398
-21.575
-21.813
-22.2135
-22.6168
-22.8974
-23.0568
-23.2232
-23.5675
-24.2394
-25.1354
-26.1188
-27.0518
-27.8207
-28.3308
-28.6235
-28.8889
-29.3618
-30.2434
-31.3985
-32.6477
-33.8111
-34.7407
-35.3142
-35.5851
-35.7981
-36.254
-37.2098
-38.4924
-39.8717
-41.1209
-42.0533
-42.5159
-42.5695
-42.5092
-42.6942
-43.4306
-44.511
-45.6934
-46.8232
-47.9291
-46.6981
-45.3731
-44.1774
-43.3979
-44.2632
-45.6941
-47.1427
-48.2123
-48.6244
-47.849
-45.908
-43.453
-40.7832
-38.3267
-36.5232
-36.2325
-36.4167
-36.4289
-35.7016
-34.1856
-32.3179
-30.3033
-28.4432
-27.0445
-26.7116
-26.7131
-26.5942
-25.9739
-24.8466
-23.6164
-22.6546
-22.5628
-22.8382
-23.2059
-23.4763
-23.5149
-23.0934
-22.2419
-21.3297
-20.6962
-20.8841
-21.4412
-22.1242
-22.7446
-23.1684
-23.1362
-22.6481
-21.9672
-21.2244
-20.602
-20.3319
-20.8514
-21.6232
-22.3152
-22.5911
-22.4531
-22.2269
-22.2787
-23.1967
-24.4863
-25.892
-27.1754
-28.176
-28.5671
-28.3879
-28.0823
-28.1331
-29.3122
-30.9651
-32.7514
-34.3591
-35.5782
-35.9902
-35.6443
-35.1162
-35.0217
-36.3479
-38.2547
-40.302
-42.1004
-43.3855
-43.6434
-42.9267
-41.9389
-41.4071
-42.5001
-44.1484
-45.7814
-47.0229
-48.108
-45.4662
-44.4566
-42.4608
-39.5635
-42.6739
-45.8079
-48.7167
-50.918
-52.604
-51.7407
-48.2387
-44.5877
-40.461
-36.6258
-33.1292
-34.849
-36.6823
-38.0957
-37.5676
-35.0992
-32.4727
-29.4788
-26.6784
-24.0985
-25.1733
-26.306
-27.0898
-26.4837
-24.431
-22.2317
-20.069
-20.9104
-21.9336
-22.9265
-23.6729
-24.2104
-23.6456
-21.8866
-20.0552
-18.3208
-19.349
-20.5928
-21.9096
-23.0415
-24.0799
-24.0424
-22.9249
-21.7301
-20.3574
-19.0578
-17.9527
-19.5273
-21.1487
-22.6137
-22.8815
-21.9773
-20.8308
-19.7437
-21.6193
-23.6709
-25.8419
-27.7072
-29.4094
-29.6256
-28.3347
-26.7629
-25.2803
-27.6993
-30.34
-33.1128
-35.4668
-37.5783
-37.7577
-35.966
-33.8101
-31.7438
-34.6497
-37.8145
-41.0907
-43.8188
-46.1966
-46.1741
-43.6738
-40.7115
-37.78
-40.7691
-43.8071
-46.4323
-47.447
-47.506
-40.5185
-44.9589
-42.0423
-27.0778
-41.0506
-46.2456
-51.3091
-54.3657
-60.2545
-59.4319
-50.7841
-46.4073
-39.719
-34.4376
-22.2235
-33.3021
-37.5529
-42.5585
-42.2282
-36.2407
-33.1568
-28.3759
-24.5965
-15.8899
-23.5522
-26.4016
-29.5876
-29.0771
-24.2271
-20.795
-13.158
-18.9968
-21.0733
-23.0027
-24.1711
-26.4942
-25.9184
-21.6363
-18.6417
-11.9678
-17.5043
-19.6403
-21.962
-23.4742
-26.5416
-26.5049
-23.3138
-21.7501
-19.3859
-17.2344
-11.7154
-18.1366
-20.9001
-24.637
-24.8607
-21.8511
-19.35
-12.9428
-19.7893
-22.684
-26.2329
-28.4744
-32.7834
-32.8547
-28.6867
-25.3156
-16.8094
-25.7674
-29.5251
-34.0774
-36.9241
-42.3611
-42.3636
-36.8123
-32.3752
-21.3057
-32.5787
-37.2136
-42.6685
-46.0412
-52.4636
-52.2726
-45.0858
-39.4393
-25.6269
-38.9674
-44.0594
-49.4017
-49.2471
-42.5691
-46.6418
-47.2567
-47.8344
-48.3714
-48.8651
-49.3135
-49.7154
-50.0705
-50.3788
-50.6409
-50.8575
-51.0295
-51.1576
-51.2427
-51.285
-46.6744
-47.2933
-47.8744
-48.4141
-48.9097
-49.3592
-49.7615
-50.1165
-50.4243
-50.6856
-50.9014
-51.0725
-51.2
-51.2845
-51.3266
-46.74
-47.367
-47.9551
-48.5003
-48.9996
-49.4512
-49.8543
-50.2089
-50.5155
-50.7752
-50.9891
-51.1585
-51.2845
-51.3679
-51.4095
-46.839
-47.4789
-48.078
-48.6316
-49.1365
-49.5911
-49.9949
-50.3484
-50.6528
-50.9096
-51.1205
-51.2871
-51.4107
-51.4925
-51.5332
-46.9726
-47.6311
-48.2457
-48.8108
-49.3231
-49.7811
-50.185
-50.5363
-50.8369
-51.0892
-51.2955
-51.4578
-51.578
-51.6573
-51.6968
-47.1423
-47.8266
-48.4622
-49.0422
-49.5632
-50.0244
-50.4271
-50.774
-51.0685
-51.314
-51.5136
-51.6699
-51.7852
-51.8612
-51.899
-47.3507
-48.0702
-48.7335
-49.3321
-49.8625
-50.3254
-50.7241
-51.0634
-51.3484
-51.5839
-51.774
-51.9222
-52.031
-52.1026
-52.138
-47.6019
-48.3694
-49.0689
-49.6895
-50.2288
-50.69
-51.0799
-51.4064
-51.6771
-51.8983
-52.0756
-52.2128
-52.3133
-52.3791
-52.4117
-47.9024
-48.7363
-49.4824
-50.1277
-50.6724
-51.1253
-51.4985
-51.8047
-52.0543
-52.256
-52.4162
-52.5395
-52.6294
-52.6881
-52.7171
-48.2629
-49.1901
-49.9962
-50.6656
-51.2069
-51.6394
-51.9838
-52.2589
-52.479
-52.6545
-52.7928
-52.8987
-52.9756
-53.0259
-53.0507
-48.6993
-49.7642
-50.6456
-51.3308
-51.8493
-52.2402
-52.5377
-52.7675
-52.9476
-53.0896
-53.2009
-53.286
-53.3478
-53.3881
-53.4081
-49.2354
-50.5206
-51.4904
-52.1622
-52.6181
-52.933
-53.1579
-53.3251
-53.4538
-53.5549
-53.6344
-53.6956
-53.7404
-53.7699
-53.7845
-49.9094
-51.5918
-52.6326
-53.2095
-53.5277
-53.7144
-53.8347
-53.9205
-53.9869
-54.041
-54.0853
-54.1208
-54.1475
-54.1655
-54.1745
-50.8523
-53.3039
-54.2369
-54.5145
-54.5684
-54.5611
-54.5447
-54.5342
-54.5319
-54.5362
-54.5443
-54.5538
-54.5625
-54.5691
-54.5726
-53.0251
-56.5338
-56.4954
-56.0426
-55.6701
-55.4152
-55.2475
-55.1388
-55.0697
-55.0269
-55.0013
-54.9866
-54.9786
-54.9747
-54.9731
-55.3771
-55.3797
-55.3857
-55.3966
-55.4151
-55.4452
-55.4936
-55.5706
-55.6933
-55.8923
-56.2275
-56.8353
-58.096
-61.3449
-72.3744
-55.7208
-55.727
-55.7404
-55.7628
-55.7974
-55.8493
-55.9266
-56.0417
-56.2157
-56.4848
-56.9174
-57.6502
-58.9712
-61.455
-65.667
-56.0595
-56.0688
-56.0882
-56.1199
-56.1672
-56.2355
-56.3328
-56.4717
-56.6713
-56.9631
-57.3981
-58.056
-59.0388
-60.3645
-61.5223
-56.3913
-56.4029
-56.427
-56.4656
-56.522
-56.6011
-56.7099
-56.8588
-57.0624
-57.3414
-57.7232
-58.2359
-58.8677
-59.3898
-58.5586
-56.7144
-56.7277
-56.7551
-56.7985
-56.8607
-56.9456
-57.0588
-57.2076
-57.4005
-57.6473
-57.9568
-58.3326
-58.7723
-59.3543
-60.9215
-57.0276
-57.042
-57.0717
-57.1179
-57.183
-57.27
-57.3827
-57.5251
-57.7004
-57.909
-58.1441
-58.3844
-58.5773
-58.6343
-58.4844
-57.3301
-57.3453
-57.376
-57.4236
-57.4896
-57.5762
-57.6856
-57.8192
-57.9763
-58.1512
-58.3278
-58.4684
-58.4759
-58.0575
-55.951
-57.6215
-57.6369
-57.6681
-57.716
-57.7816
-57.8663
-57.9712
-58.0963
-58.2389
-58.3911
-58.5363
-58.6444
-58.6695
-58.6526
-59.629
-57.9016
-57.917
-57.9481
-57.9954
-58.0598
-58.142
-58.2426
-58.3608
-58.4938
-58.6347
-58.7705
-58.8774
-58.8914
-58.5576
-56.3271
-58.1703
-58.1855
-58.2161
-58.2624
-58.3251
-58.4047
-58.5013
-58.6145
-58.7422
-58.8806
-59.0248
-59.1744
-59.354
-59.7793
-61.9984
-58.4277
-58.4425
-58.4724
-58.5175
-58.5783
-58.6551
-58.7482
-58.8575
-58.9821
-59.1212
-59.2753
-59.4501
-59.6448
-59.7549
-58.7058
-58.6741
-58.6885
-58.7175
-58.7612
-58.8199
-58.8939
-58.9836
-59.0892
-59.211
-59.35
-59.5113
-59.7114
-59.9933
-60.5352
-62.4175
-58.9097
-58.9236
-58.9516
-58.9938
-59.0503
-59.1214
-59.2076
-59.3092
-59.4268
-59.562
-59.7203
-59.9155
-60.1602
-60.3842
-59.7214
-59.1349
-59.1483
-59.1753
-59.2158
-59.27
-59.3382
-59.4206
-59.5175
-59.6292
-59.7565
-59.9035
-60.0845
-60.3405
-60.8487
-62.5511
-59.3499
-59.3629
-59.3887
-59.4276
-59.4795
-59.5447
-59.6232
-59.715
-59.8197
-59.936
-60.063
-60.2009
-60.3445
-60.4833
-60.5955
-59.5553
-59.5677
-59.5925
-59.6297
-59.6794
-59.7415
-59.8162
-59.903
-60.0008
-60.1067
-60.215
-60.3128
-60.3508
-60.1359
-58.7274
-59.7512
-59.7631
-59.7869
-59.8225
-59.8699
-59.9293
-60.0004
-60.0828
-60.1752
-60.2742
-60.3741
-60.4656
-60.5315
-60.617
-61.4654
-59.9382
-59.9495
-59.9723
-60.0064
-60.0518
-60.1085
-60.1764
-60.2552
-60.3438
-60.4396
-60.5391
-60.6356
-60.6976
-60.5677
-59.2277
-60.1164
-60.1273
-60.1491
-60.1817
-60.2252
-60.2794
-60.3445
-60.4202
-60.506
-60.601
-60.706
-60.8289
-60.9959
-61.3583
-62.9141
-60.2862
-60.2966
-60.3176
-60.3489
-60.3905
-60.4425
-60.5049
-60.5777
-60.6607
-60.7539
-60.8605
-60.991
-61.1572
-61.3196
-60.8463
-60.4479
-60.458
-60.4781
-60.5081
-60.5481
-60.598
-60.6578
-60.7275
-60.8069
-60.8961
-60.9984
-61.1276
-61.32
-61.7218
-63.062
-60.6018
-60.6115
-60.6309
-60.6598
-60.6982
-60.7461
-60.8034
-60.87
-60.945
-61.0275
-61.1176
-61.2195
-61.3363
-61.472
-61.6165
-60.7482
-60.7575
-60.7762
-60.8041
-60.8412
-60.8873
-60.9424
-61.0059
-61.0766
-61.152
-61.2287
-61.3006
-61.3383
-61.2155
-60.2817
-60.8872
-60.8962
-60.9143
-60.9414
-60.9773
-61.0219
-61.0751
-61.1362
-61.2036
-61.2741
-61.343
-61.4048
-61.4504
-61.5217
-62.1531
-61.019
-61.0278
-61.0454
-61.0717
-61.1067
-61.1502
-61.202
-61.2616
-61.3272
-61.3957
-61.4621
-61.5196
-61.5434
-61.4386
-60.6293
-61.1439
-61.1525
-61.1697
-61.1954
-61.2296
-61.2722
-61.3232
-61.382
-61.4475
-61.517
-61.5875
-61.6572
-61.7245
-61.8441
-62.5643
-61.2619
-61.2703
-61.2872
-61.3124
-61.346
-61.3881
-61.4385
-61.4973
-61.5636
-61.6361
-61.7135
-61.7958
-61.868
-61.8321
-60.9999
-61.3731
-61.3814
-61.398
-61.4229
-61.456
-61.4976
-61.5478
-61.6067
-61.6742
-61.75
-61.836
-61.9408
-62.0851
-62.3728
-63.4678
-61.4777
-61.4859
-61.5023
-61.5268
-61.5595
-61.6007
-61.6506
-61.7095
-61.7775
-61.8552
-61.9455
-62.0578
-62.2014
-62.3523
-62.1075
-61.5758
-61.5838
-61.6
-61.6242
-61.6566
-61.6974
-61.7468
-61.8053
-61.8729
-61.95
-62.0396
-62.1523
-62.3114
-62.6061
-63.4847
-61.6673
-61.6753
-61.6913
-61.7152
-61.7473
-61.7876
-61.8364
-61.894
-61.9602
-62.0345
-62.1177
-62.2141
-62.3258
-62.4541
-62.5863
-61.7524
-61.7603
-61.7761
-61.7998
-61.8315
-61.8714
-61.9196
-61.9761
-62.0405
-62.1112
-62.1865
-62.2645
-62.3274
-62.2988
-61.7907
-61.8312
-61.839
-61.8546
-61.8781
-61.9095
-61.9489
-61.9965
-62.0522
-62.115
-62.183
-62.2535
-62.3248
-62.3913
-62.4759
-62.8826
-61.9035
-61.9113
-61.9268
-61.9502
-61.9813
-62.0204
-62.0676
-62.1226
-62.1846
-62.2512
-62.3198
-62.3878
-62.4413
-62.4287
-62.039
-61.9696
-61.9773
-61.9928
-62.016
-62.0469
-62.0858
-62.1328
-62.1876
-62.2494
-62.3164
-62.3866
-62.4601
-62.536
-62.6431
-63.0704
-62.0294
-62.0371
-62.0525
-62.0756
-62.1064
-62.1452
-62.1921
-62.247
-62.3094
-62.3777
-62.451
-62.5302
-62.6075
-62.6346
-62.2752
-62.0829
-62.0906
-62.1059
-62.129
-62.1598
-62.1985
-62.2455
-62.3006
-62.3637
-62.4338
-62.5112
-62.6011
-62.7125
-62.894
-63.4622
-62.1302
-62.1378
-62.1532
-62.1762
-62.207
-62.2457
-62.2927
-62.3482
-62.4117
-62.483
-62.5628
-62.6564
-62.7673
-62.8845
-62.8346
-62.1712
-62.1789
-62.1942
-62.2172
-62.248
-62.2868
-62.3338
-62.3893
-62.4531
-62.5246
-62.6046
-62.6991
-62.8165
-62.9904
-63.3973
-62.206
-62.2136
-62.229
-62.252
-62.2828
-62.3216
-62.3686
-62.4241
-62.4876
-62.5584
-62.6365
-62.7253
-62.825
-62.9341
-63.0403
-62.2345
-62.2422
-62.2575
-62.2806
-62.3114
-62.3502
-62.3972
-62.4525
-62.5156
-62.5854
-62.6609
-62.7433
-62.8257
-62.8793
-62.7685
-62.2567
-62.2644
-62.2798
-62.3029
-62.3338
-62.3727
-62.4197
-62.4749
-62.5377
-62.6065
-62.6804
-62.7607
-62.8449
-62.9381
-63.1273
-62.2727
-62.2804
-62.2959
-62.3191
-62.3501
-62.3891
-62.4362
-62.4914
-62.554
-62.6224
-62.6956
-62.7748
-62.8565
-62.9298
-62.933
-62.2823
-62.2901
-62.3056
-62.329
-62.3602
-62.3993
-62.4467
-62.502
-62.5648
-62.6333
-62.7065
-62.7865
-62.8725
-62.9697
-63.1237
-62.2856
-62.2934
-62.3091
-62.3326
-62.364
-62.4035
-62.4511
-62.5069
-62.5701
-62.6391
-62.7128
-62.7934
-62.8793
-62.9698
-63.0615
-62.2825
-62.2904
-62.3062
-62.3299
-62.3617
-62.4015
-62.4496
-62.506
-62.5699
-62.6397
-62.7145
-62.7958
-62.8816
-62.9685
-63.0439
-62.273
-62.2809
-62.2969
-62.3209
-62.353
-62.3933
-62.442
-62.4992
-62.5641
-62.6352
-62.7115
-62.7945
-62.8816
-62.9747
-63.1209
-62.2569
-62.265
-62.2812
-62.3054
-62.3379
-62.3787
-62.4282
-62.4863
-62.5524
-62.6253
-62.704
-62.7895
-62.8762
-62.9436
-62.9048
-62.2343
-62.2425
-62.2588
-62.2834
-62.3163
-62.3578
-62.408
-62.4671
-62.5347
-62.6097
-62.6917
-62.7832
-62.8826
-62.9859
-63.0795
-62.205
-62.2133
-62.2299
-62.2548
-62.2882
-62.3302
-62.3812
-62.4413
-62.5103
-62.5873
-62.6727
-62.7707
-62.8851
-63.0343
-63.3309
-62.1691
-62.1775
-62.1943
-62.2195
-62.2534
-62.296
-62.3477
-62.4088
-62.4789
-62.5574
-62.645
-62.7462
-62.8619
-62.9799
-62.9689
-62.1263
-62.1348
-62.1519
-62.1775
-62.2118
-62.255
-62.3074
-62.3692
-62.4401
-62.5194
-62.6078
-62.7108
-62.8358
-63.0145
-63.442
-62.0766
-62.0853
-62.1026
-62.1286
-62.1634
-62.2072
-62.2602
-62.3226
-62.394
-62.4733
-62.5605
-62.6596
-62.771
-62.8759
-62.7665
-62.02
-62.0288
-62.0463
-62.0727
-62.108
-62.1524
-62.2061
-62.2692
-62.3409
-62.4198
-62.5048
-62.5992
-62.7093
-62.8856
-63.4839
-61.9563
-61.9652
-61.983
-62.0098
-62.0456
-62.0907
-62.1452
-62.2091
-62.2814
-62.3601
-62.4427
-62.5273
-62.6002
-62.6018
-62.1621
-61.8855
-61.8945
-61.9126
-61.9397
-61.9761
-62.0219
-62.0774
-62.1424
-62.216
-62.296
-62.3791
-62.463
-62.5391
-62.624
-63.0133
-61.8075
-61.8166
-61.8349
-61.8625
-61.8994
-61.946
-62.0025
-62.069
-62.1447
-62.2277
-62.3152
-62.4033
-62.4703
-62.4345
-61.9064
-61.7221
-61.7313
-61.7499
-61.7778
-61.8154
-61.8627
-61.9204
-61.9885
-62.0669
-62.1545
-62.2507
-62.3575
-62.4717
-62.5864
-62.6846
-61.6293
-61.6387
-61.6574
-61.6857
-61.7238
-61.7719
-61.8305
-61.9003
-61.9812
-62.0735
-62.1789
-62.3059
-62.4713
-62.7491
-63.543
-61.529
-61.5385
-61.5574
-61.586
-61.6245
-61.6732
-61.7326
-61.8035
-61.8863
-61.9815
-62.0921
-62.227
-62.3915
-62.5528
-62.3188
-61.4212
-61.4307
-61.4498
-61.4787
-61.5174
-61.5665
-61.6264
-61.6978
-61.7811
-61.8769
-61.9885
-62.1267
-62.3126
-62.6305
-63.5897
-61.3058
-61.3154
-61.3346
-61.3636
-61.4025
-61.4518
-61.5119
-61.5832
-61.6658
-61.7596
-61.8663
-61.9927
-62.1406
-62.2624
-61.8391
-61.1827
-61.1923
-61.2116
-61.2407
-61.2798
-61.3291
-61.3891
-61.46
-61.5412
-61.6315
-61.7305
-61.843
-61.9853
-62.2723
-63.5059
-61.052
-61.0616
-61.081
-61.1101
-61.1492
-61.1986
-61.2585
-61.3289
-61.4087
-61.4955
-61.5853
-61.6721
-61.728
-61.6242
-60.5462
-60.9136
-60.9232
-60.9426
-60.9717
-61.0109
-61.0602
-61.1201
-61.1905
-61.27
-61.3556
-61.4421
-61.5219
-61.58
-61.6523
-62.345
-60.7675
-60.7771
-60.7965
-60.8256
-60.8647
-60.9141
-60.9742
-61.045
-61.1255
-61.2133
-61.3034
-61.3862
-61.4208
-61.249
-60.1053
-60.6137
-60.6233
-60.6426
-60.6717
-60.7108
-60.7602
-60.8204
-60.892
-60.9746
-61.0674
-61.1699
-61.2834
-61.4034
-61.5203
-61.6147
-60.4523
-60.4618
-60.4811
-60.51
-60.5489
-60.5982
-60.6585
-60.7306
-60.8151
-60.9131
-61.0286
-61.1753
-61.3868
-61.8065
-63.2017
-60.2832
-60.2927
-60.3118
-60.3406
-60.3792
-60.4281
-60.488
-60.5598
-60.6447
-60.7447
-60.8656
-61.0216
-61.224
-61.4149
-60.8835
-60.1065
-60.116
-60.135
-60.1635
-60.2017
-60.2499
-60.3089
-60.3793
-60.4623
-60.5599
-60.6783
-60.835
-61.0678
-61.5244
-63.094
-59.9224
-59.9318
-59.9506
-59.9788
-60.0165
-60.0639
-60.1214
-60.1894
-60.2683
-60.3588
-60.4643
-60.595
-60.7546
-60.8605
-60.0238
-59.7307
-59.74
-59.7587
-59.7867
-59.8239
-59.8703
-59.9262
-59.9912
-60.0647
-60.1453
-60.2329
-60.3343
-60.4772
-60.8506
-62.7672
-59.5315
-59.5409
-59.5595
-59.5873
-59.6241
-59.6699
-59.7242
-59.7865
-59.8547
-59.9252
-59.9918
-60.044
-60.0383
-59.7686
-57.9207
-59.3249
-59.3343
-59.353
-59.3808
-59.4176
-59.4629
-59.5164
-59.5768
-59.6417
-59.7059
-59.7608
-59.7933
-59.7812
-59.7821
-60.7353
-59.1108
-59.1203
-59.1393
-59.1674
-59.2044
-59.2499
-59.3034
-59.3635
-59.4277
-59.4911
-59.5452
-59.573
-59.5137
-59.1338
-57.2892
-58.8892
-58.8989
-58.9182
-58.9469
-58.9847
-59.031
-59.0853
-59.1466
-59.2128
-59.281
-59.3479
-59.4124
-59.4673
-59.5022
-59.5082
-58.6599
-58.6699
-58.6898
-58.7194
-58.7583
-58.806
-58.8621
-58.9255
-58.9951
-59.0699
-59.1523
-59.2579
-59.4335
-59.89
-61.7431
-58.4226
-58.4331
-58.4538
-58.4846
-58.5251
-58.5749
-58.6333
-58.6995
-58.7724
-58.8515
-58.9408
-59.054
-59.2032
-59.3074
-58.3867
-58.1772
-58.1882
-58.2099
-58.2423
-58.2849
-58.3373
-58.3988
-58.4682
-58.5438
-58.6243
-58.7126
-58.8244
-59.0027
-59.4361
-61.2923
-57.9233
-57.9348
-57.9577
-57.992
-58.0372
-58.0931
-58.1585
-58.2319
-58.3103
-58.3898
-58.4681
-58.5481
-58.6235
-58.5763
-57.2717
-57.6605
-57.6726
-57.6969
-57.7332
-57.7816
-57.8416
-57.9123
-57.9914
-58.0746
-58.1545
-58.2224
-58.2743
-58.328
-58.589
-60.5832
-57.3884
-57.4011
-57.4267
-57.4654
-57.5173
-57.5824
-57.6599
-57.7475
-57.8396
-57.9256
-57.9879
-57.9985
-57.8873
-57.3976
-55.0286
-57.1065
-57.1198
-57.1466
-57.1876
-57.2432
-57.3141
-57.4002
-57.4998
-57.6075
-57.7114
-57.7895
-57.8066
-57.7079
-57.5109
-58.1023
-56.8145
-56.8282
-56.856
-56.8988
-56.9579
-57.0348
-57.1308
-57.2459
-57.3767
-57.5132
-57.6335
-57.6943
-57.5955
-57.0763
-55.1065
-56.5121
-56.5259
-56.554
-56.5979
-56.6596
-56.7418
-56.8477
-56.9803
-57.1406
-57.3245
-57.5188
-57.6923
-57.7738
-57.6486
-57.2448
-56.1993
-56.2127
-56.2403
-56.284
-56.3465
-56.4319
-56.5459
-56.695
-56.8866
-57.127
-57.4186
-57.7534
-58.0942
-58.4139
-59.1136
-55.8764
-55.8888
-55.9147
-55.9562
-56.0168
-56.1019
-56.2192
-56.3795
-56.5973
-56.892
-57.2885
-57.8098
-58.428
-58.9148
-58.3648
-55.544
-55.5548
-55.5774
-55.6144
-55.6696
-55.7491
-55.8624
-56.0234
-56.2531
-56.5847
-57.0718
-57.7984
-58.8516
-60.1352
-60.3587
-55.2032
-55.2116
-55.2295
-55.2592
-55.3048
-55.3725
-55.4722
-55.6189
-55.837
-56.1677
-56.689
-57.5595
-59.114
-62.0913
-67.8392
-54.8559
-54.8611
-54.8725
-54.8923
-54.924
-54.9733
-55.0489
-55.1643
-55.3412
-55.6168
-56.0638
-56.8449
-58.3871
-62.1228
-74.0005
-74.7187
-62.7455
-58.9439
-57.3691
-56.5722
-56.1166
-55.8361
-55.656
-55.538
-55.4604
-55.4094
-55.3763
-55.3555
-55.3434
-55.3378
-68.9467
-62.7172
-59.6219
-58.0346
-57.1552
-56.6314
-56.3003
-56.0823
-55.9355
-55.8355
-55.7674
-55.7214
-55.6914
-55.6733
-55.6648
-60.4991
-60.5116
-59.2514
-58.2083
-57.4911
-57.011
-56.6847
-56.4586
-56.3
-56.1882
-56.1095
-56.0549
-56.0183
-55.9958
-55.9851
-59.0644
-59.1891
-58.7287
-58.1552
-57.6624
-57.2825
-56.9982
-56.7874
-56.6317
-56.5174
-56.4344
-56.3751
-56.3346
-56.3093
-56.2971
-57.5531
-58.2724
-58.283
-58.046
-57.755
-57.4861
-57.2596
-57.0771
-56.9342
-56.8246
-56.7421
-56.6818
-56.6396
-56.6129
-56.5999
-57.7301
-57.847
-58.0082
-57.9737
-57.8324
-57.6587
-57.489
-57.3387
-57.2133
-57.1125
-57.034
-56.9751
-56.933
-56.9061
-56.8929
-55.659
-57.3901
-57.8678
-57.9754
-57.932
-57.8272
-57.7035
-57.5825
-57.4749
-57.3845
-57.3119
-57.2559
-57.2153
-57.1889
-57.1759
-58.3658
-57.8029
-57.983
-58.0817
-58.0742
-58.0075
-57.9146
-57.8162
-57.7241
-57.6439
-57.5775
-57.5253
-57.4869
-57.4616
-57.4491
-55.5047
-57.6989
-58.1534
-58.2612
-58.2574
-58.2044
-58.1282
-58.045