/*--------------------------------*- C++ -*----------------------------------*\
| =========                 |                                                 |
| \\      /  F ield         | OpenFOAM: The Open Source CFD Toolbox           |
|  \\    /   O peration     | Version:  5.x                                   |
|   \\  /    A nd           | Web:      www.OpenFOAM.org                      |
|    \\/     M anipulation  |                                                 |
\*---------------------------------------------------------------------------*/
FoamFile
{
    version     2.0;
    format      ascii;
    class       volScalarField;
    location    "1.7";
    object      T;
}
// * * * * * * * * * * * * * * * * * * * * * * * * * * * * * * * * * * * * * //

dimensions      [0 0 0 1 0 0 0];

internalField   nonuniform List<scalar> 
6300
(
322.743
322.23
321.717
321.206
320.696
320.187
319.681
319.178
318.677
318.18
317.687
317.199
316.714
316.235
315.761
322.743
322.229
321.716
321.204
320.694
320.185
319.679
319.175
318.674
318.177
317.683
317.194
316.709
316.23
315.756
322.743
322.228
321.714
321.202
320.69
320.181
319.673
319.169
318.667
318.169
317.675
317.185
316.7
316.219
315.745
322.742
322.227
321.712
321.198
320.685
320.174
319.665
319.159
318.657
318.157
317.662
317.171
316.685
316.204
315.728
322.741
322.224
321.708
321.192
320.678
320.165
319.655
319.147
318.643
318.142
317.645
317.152
316.665
316.182
315.706
322.74
322.221
321.703
321.185
320.669
320.154
319.642
319.132
318.625
318.122
317.623
317.129
316.64
316.156
315.678
322.739
322.218
321.697
321.177
320.658
320.141
319.626
319.114
318.605
318.099
317.597
317.1
316.609
316.123
315.643
322.738
322.214
321.69
321.167
320.646
320.126
319.608
319.093
318.58
318.071
317.567
317.067
316.573
316.084
315.603
322.736
322.209
321.683
321.157
320.632
320.109
319.587
319.068
318.552
318.04
317.531
317.028
316.53
316.039
315.556
322.735
322.204
321.674
321.145
320.617
320.09
319.565
319.041
318.521
318.004
317.491
316.983
316.481
315.987
315.501
322.733
322.199
321.665
321.132
320.6
320.069
319.54
319.012
318.486
317.964
317.445
316.932
316.425
315.926
315.437
322.731
322.193
321.656
321.119
320.582
320.047
319.513
318.98
318.449
317.92
317.395
316.875
316.36
315.855
315.363
322.729
322.187
321.646
321.105
320.564
320.024
319.484
318.946
318.409
317.874
317.34
316.811
316.287
315.772
315.273
322.727
322.181
321.636
321.09
320.545
320
319.455
318.911
318.367
317.824
317.282
316.741
316.204
315.673
315.16
322.725
322.175
321.625
321.075
320.525
319.976
319.426
318.876
318.325
317.774
317.223
316.669
316.114
315.557
315.008
315.332
314.946
314.564
314.187
313.814
313.445
313.082
312.723
312.37
312.021
311.679
311.342
311.01
310.685
310.365
310.052
309.745
309.443
309.148
308.859
308.575
308.298
308.026
307.759
307.498
307.243
306.992
306.746
306.504
306.266
306.033
305.803
305.577
305.353
305.133
304.915
304.699
304.486
304.274
304.064
303.855
303.647
303.441
303.234
303.028
302.823
302.617
302.41
302.203
301.996
301.787
301.576
301.364
301.151
300.935
300.716
300.495
300.271
300.044
299.814
299.579
299.341
299.099
298.853
298.602
298.346
298.086
297.821
297.551
297.276
296.995
296.71
296.418
296.122
295.82
295.512
295.199
294.881
294.557
294.227
293.892
293.552
293.206
292.855
292.498
292.136
291.77
291.398
291.021
290.64
315.326
314.94
314.558
314.18
313.807
313.438
313.075
312.716
312.362
312.014
311.671
311.334
311.002
310.676
310.357
310.043
309.736
309.435
309.139
308.85
308.567
308.289
308.018
307.752
307.491
307.236
306.985
306.739
306.498
306.261
306.028
305.798
305.572
305.349
305.129
304.911
304.696
304.483
304.272
304.062
303.854
303.646
303.44
303.234
303.028
302.823
302.617
302.411
302.204
301.997
301.789
301.579
301.367
301.154
300.938
300.72
300.5
300.276
300.049
299.819
299.585
299.347
299.105
298.859
298.608
298.353
298.093
297.828
297.558
297.283
297.003
296.717
296.426
296.13
295.828
295.52
295.207
294.889
294.564
294.235
293.9
293.559
293.213
292.862
292.505
292.144
291.777
291.405
291.028
290.646
315.315
314.928
314.546
314.167
313.794
313.425
313.06
312.701
312.347
311.998
311.655
311.317
310.985
310.659
310.34
310.026
309.719
309.417
309.122
308.833
308.55
308.273
308.002
307.736
307.476
307.221
306.972
306.727
306.486
306.25
306.017
305.788
305.563
305.341
305.122
304.905
304.69
304.478
304.267
304.058
303.851
303.644
303.438
303.233
303.028
302.823
302.618
302.413
302.207
302
301.792
301.583
301.372
301.16
300.945
300.728
300.508
300.285
300.059
299.829
299.596
299.359
299.117
298.872
298.621
298.367
298.107
297.842
297.573
297.298
297.018
296.732
296.441
296.145
295.843
295.536
295.223
294.904
294.58
294.25
293.915
293.575
293.228
292.877
292.52
292.158
291.791
291.419
291.041
290.659
315.297
314.91
314.527
314.148
313.774
313.404
313.039
312.679
312.324
311.975
311.631
311.292
310.96
310.634
310.314
310
309.692
309.391
309.096
308.808
308.525
308.249
307.978
307.713
307.454
307.2
306.951
306.707
306.468
306.233
306.001
305.774
305.55
305.329
305.11
304.895
304.681
304.47
304.261
304.053
303.846
303.64
303.435
303.231
303.027
302.823
302.619
302.415
302.21
302.005
301.798
301.59
301.38
301.169
300.955
300.739
300.52
300.298
300.073
299.845
299.612
299.376
299.135
298.89
298.641
298.387
298.128
297.864
297.595
297.32
297.04
296.755
296.464
296.168
295.867
295.559
295.246
294.928
294.603
294.274
293.938
293.598
293.251
292.899
292.542
292.18
291.812
291.439
291.062
290.679
315.274
314.886
314.502
314.123
313.747
313.377
313.011
312.65
312.294
311.943
311.598
311.259
310.926
310.599
310.279
309.965
309.657
309.356
309.061
308.773
308.491
308.216
307.946
307.682
307.424
307.172
306.924
306.682
306.444
306.21
305.98
305.754
305.532
305.312
305.096
304.882
304.67
304.46
304.252
304.045
303.84
303.636
303.432
303.229
303.026
302.824
302.621
302.418
302.215
302.011
301.805
301.599
301.391
301.181
300.969
300.754
300.537
300.317
300.093
299.866
299.634
299.399
299.16
298.916
298.667
298.414
298.156
297.892
297.624
297.35
297.07
296.786
296.495
296.199
295.898
295.591
295.278
294.959
294.635
294.305
293.969
293.628
293.282
292.929
292.572
292.209
291.841
291.468
291.089
290.705
315.245
314.856
314.471
314.091
313.715
313.343
312.976
312.614
312.256
311.904
311.558
311.218
310.883
310.556
310.235
309.92
309.613
309.312
309.017
308.73
308.449
308.174
307.906
307.643
307.387
307.136
306.89
306.649
306.413
306.182
305.954
305.73
305.51
305.292
305.077
304.865
304.655
304.447
304.241
304.036
303.832
303.63
303.428
303.226
303.025
302.824
302.623
302.422
302.22
302.018
301.815
301.61
301.404
301.196
300.986
300.773
300.558
300.339
300.117
299.892
299.662
299.428
299.19
298.948
298.7
298.448
298.191
297.928
297.66
297.387
297.108
296.824
296.534
296.238
295.937
295.63
295.317
294.998
294.674
294.344
294.008
293.667
293.32
292.967
292.609
292.246
291.877
291.503
291.123
290.739
315.209
314.819
314.434
314.053
313.676
313.303
312.934
312.57
312.211
311.857
311.509
311.167
310.832
310.503
310.181
309.867
309.559
309.258
308.964
308.677
308.397
308.123
307.856
307.596
307.341
307.092
306.849
306.611
306.377
306.148
305.923
305.701
305.483
305.268
305.055
304.845
304.637
304.432
304.227
304.025
303.823
303.623
303.423
303.223
303.024
302.825
302.626
302.427
302.227
302.027
301.826
301.624
301.42
301.214
301.007
300.796
300.583
300.367
300.147
299.924
299.696
299.464
299.227
298.986
298.74
298.489
298.233
297.972
297.705
297.432
297.154
296.87
296.581
296.285
295.984
295.677
295.365
295.046
294.722
294.391
294.055
293.713
293.365
293.013
292.654
292.29
291.921
291.546
291.165
290.779
315.168
314.777
314.391
314.009
313.63
313.256
312.886
312.52
312.158
311.801
311.451
311.107
310.77
310.44
310.118
309.803
309.495
309.194
308.901
308.614
308.335
308.063
307.798
307.54
307.288
307.041
306.801
306.565
306.334
306.108
305.886
305.667
305.452
305.24
305.03
304.822
304.617
304.414
304.212
304.012
303.813
303.615
303.417
303.22
303.023
302.826
302.629
302.432
302.234
302.037
301.838
301.639
301.438
301.236
301.031
300.823
300.613
300.399
300.182
299.961
299.736
299.506
299.271
299.031
298.787
298.538
298.283
298.023
297.757
297.486
297.208
296.925
296.636
296.341
296.04
295.733
295.421
295.102
294.777
294.446
294.11
293.767
293.419
293.066
292.707
292.343
291.973
291.597
291.215
290.828
315.119
314.728
314.341
313.959
313.58
313.204
312.832
312.463
312.098
311.738
311.384
311.037
310.698
310.367
310.044
309.729
309.421
309.12
308.827
308.542
308.264
307.993
307.73
307.475
307.225
306.982
306.745
306.512
306.285
306.062
305.844
305.629
305.417
305.208
305.001
304.796
304.594
304.394
304.195
303.998
303.802
303.606
303.411
303.216
303.021
302.826
302.631
302.437
302.242
302.048
301.853
301.657
301.459
301.26
301.058
300.854
300.647
300.437
300.223
300.005
299.782
299.554
299.321
299.084
298.841
298.593
298.341
298.082
297.818
297.547
297.271
296.988
296.699
296.404
296.104
295.798
295.485
295.167
294.842
294.51
294.172
293.829
293.48
293.126
292.767
292.403
292.033
291.656
291.273
290.884
315.064
314.672
314.286
313.904
313.525
313.148
312.773
312.4
312.03
311.665
311.306
310.956
310.614
310.282
309.959
309.644
309.336
309.036
308.743
308.458
308.181
307.913
307.653
307.4
307.155
306.915
306.682
306.453
306.229
306.011
305.796
305.586
305.378
305.173
304.969
304.768
304.568
304.371
304.175
303.982
303.789
303.597
303.405
303.212
303.019
302.826
302.634
302.442
302.25
302.059
301.868
301.676
301.483
301.287
301.089
300.889
300.686
300.48
300.27
300.055
299.835
299.609
299.379
299.143
298.902
298.657
298.406
298.15
297.887
297.618
297.342
297.059
296.77
296.475
296.176
295.87
295.559
295.241
294.915
294.583
294.243
293.898
293.548
293.194
292.835
292.471
292.101
291.725
291.341
290.95
315
314.609
314.225
313.845
313.467
313.089
312.711
312.333
311.956
311.583
311.218
310.862
310.517
310.185
309.862
309.548
309.241
308.941
308.647
308.362
308.086
307.82
307.564
307.316
307.075
306.841
306.611
306.386
306.167
305.953
305.744
305.539
305.336
305.134
304.934
304.736
304.539
304.345
304.153
303.964
303.776
303.588
303.399
303.209
303.017
302.826
302.635
302.445
302.258
302.071
301.885
301.698
301.509
301.318
301.124
300.928
300.73
300.529
300.323
300.113
299.896
299.672
299.443
299.208
298.97
298.727
298.48
298.227
297.967
297.699
297.422
297.139
296.849
296.554
296.255
295.952
295.642
295.325
294.999
294.665
294.323
293.975
293.623
293.268
292.911
292.549
292.18
291.803
291.418
291.026
314.925
314.537
314.157
313.782
313.409
313.032
312.65
312.263
311.875
311.49
311.115
310.752
310.404
310.072
309.753
309.443
309.137
308.836
308.54
308.253
307.977
307.714
307.462
307.221
306.988
306.759
306.533
306.312
306.096
305.888
305.686
305.488
305.291
305.095
304.898
304.701
304.506
304.315
304.128
303.945
303.763
303.58
303.395
303.206
303.016
302.825
302.635
302.447
302.263
302.082
301.902
301.722
301.539
301.352
301.162
300.97
300.778
300.583
300.385
300.179
299.966
299.744
299.515
299.28
299.043
298.803
298.561
298.314
298.057
297.791
297.513
297.227
296.934
296.638
296.341
296.042
295.737
295.422
295.095
294.757
294.41
294.056
293.701
293.347
292.993
292.635
292.269
291.893
291.507
291.113
314.836
314.455
314.08
313.718
313.357
312.981
312.595
312.195
311.792
311.385
310.994
310.62
310.27
309.94
309.631
309.331
309.027
308.724
308.42
308.129
307.85
307.59
307.345
307.116
306.895
306.671
306.449
306.228
306.016
305.814
305.623
305.436
305.247
305.056
304.86
304.664
304.468
304.279
304.097
303.924
303.752
303.576
303.395
303.207
303.016
302.821
302.63
302.444
302.264
302.09
301.921
301.751
301.573
301.391
301.202
301.014
300.827
300.644
300.456
300.257
300.048
299.825
299.595
299.356
299.119
298.883
298.651
298.414
298.162
297.898
297.616
297.325
297.023
296.725
296.429
296.14
295.846
295.534
295.208
294.863
294.506
294.139
293.779
293.424
293.08
292.734
292.372
291.998
291.609
291.214
314.726
314.363
313.985
313.655
313.325
312.944
312.562
312.132
311.713
311.255
310.851
310.451
310.108
309.777
309.497
309.225
308.916
308.613
308.281
307.987
307.696
307.446
307.205
307.001
306.804
306.582
306.365
306.13
305.924
305.723
305.553
305.389
305.205
305.023
304.823
304.628
304.419
304.234
304.054
303.9
303.749
303.578
303.406
303.212
303.022
302.811
302.621
302.429
302.259
302.09
301.941
301.791
301.616
301.438
301.239
301.057
300.873
300.71
300.543
300.349
300.149
299.919
299.687
299.428
299.193
298.956
298.747
298.535
298.286
298.029
297.734
297.438
297.108
296.809
296.508
296.245
295.979
295.668
295.349
294.983
294.618
294.213
293.849
293.485
293.17
292.855
292.491
292.125
291.717
291.334
314.569
314.293
313.819
313.592
313.368
312.908
312.597
312.053
311.691
311.049
310.701
310.202
309.927
309.54
309.353
309.17
308.798
308.544
308.089
307.84
307.485
307.288
307.012
306.878
306.747
306.485
306.307
305.992
305.822
305.588
305.476
305.369
305.159
305.018
304.776
304.615
304.334
304.183
303.974
303.872
303.774
303.58
303.447
303.214
303.056
302.772
302.614
302.383
302.251
302.06
301.964
301.865
301.662
301.517
301.251
301.102
300.887
300.78
300.671
300.45
300.293
300.013
299.819
299.466
299.271
298.988
298.849
298.708
298.42
298.216
297.852
297.601
297.146
296.895
296.532
296.355
296.177
295.812
295.557
295.101
294.789
294.227
293.918
293.475
293.261
293.048
292.612
292.314
291.788
291.493
290.215
289.745
289.27
288.789
288.302
287.811
287.316
286.817
286.315
285.81
285.302
284.792
284.281
283.769
283.256
290.221
289.751
289.275
288.794
288.307
287.816
287.32
286.82
286.318
285.812
285.304
284.794
284.282
283.77
283.257
290.234
289.763
289.286
288.804
288.316
287.824
287.327
286.827
286.323
285.817
285.308
284.797
284.284
283.771
283.257
290.253
289.781
289.303
288.819
288.33
287.837
287.338
286.837
286.332
285.824
285.313
284.801
284.288
283.773
283.258
290.278
289.805
289.325
288.84
288.349
287.853
287.353
286.85
286.343
285.833
285.321
284.807
284.292
283.775
283.259
290.31
289.835
289.353
288.866
288.372
287.874
287.372
286.866
286.356
285.844
285.33
284.814
284.297
283.778
283.26
290.349
289.871
289.387
288.897
288.401
287.9
287.394
286.885
286.373
285.858
285.341
284.823
284.303
283.782
283.261
290.395
289.915
289.428
288.934
288.434
287.929
287.42
286.907
286.392
285.874
285.354
284.832
284.31
283.786
283.262
290.449
289.966
289.474
288.976
288.472
287.963
287.449
286.933
286.413
285.892
285.368
284.843
284.317
283.791
283.264
290.512
290.024
289.528
289.024
288.515
288
287.482
286.961
286.437
285.911
285.384
284.855
284.326
283.796
283.265
290.584
290.092
289.589
289.079
288.562
288.042
287.518
286.991
286.462
285.932
285.401
284.868
284.335
283.801
283.267
290.668
290.169
289.658
289.139
288.615
288.086
287.556
287.023
286.489
285.954
285.418
284.882
284.344
283.807
283.269
290.766
290.257
289.734
289.204
288.67
288.134
287.596
287.057
286.517
285.977
285.437
284.896
284.354
283.813
283.271
290.884
290.358
289.818
289.274
288.728
288.182
287.637
287.091
286.546
286.001
285.455
284.91
284.364
283.819
283.273
291.037
290.474
289.907
289.344
288.786
288.231
287.677
287.126
286.575
286.024
285.474
284.924
284.374
283.825
283.275
322.723
322.169
321.616
321.062
320.508
319.953
319.399
318.843
318.287
317.73
317.169
316.605
316.033
315.443
314.806
322.721
322.164
321.607
321.049
320.492
319.933
319.375
318.815
318.254
317.691
317.124
316.552
315.971
315.373
314.742
322.72
322.159
321.598
321.037
320.476
319.914
319.351
318.787
318.222
317.654
317.083
316.506
315.921
315.325
314.714
322.718
322.154
321.59
321.026
320.461
319.895
319.329
318.761
318.191
317.62
317.045
316.465
315.88
315.288
314.692
322.716
322.149
321.582
321.014
320.446
319.877
319.307
318.736
318.163
317.588
317.01
316.429
315.843
315.253
314.656
322.715
322.145
321.574
321.003
320.432
319.859
319.286
318.712
318.136
317.558
316.978
316.395
315.81
315.223
314.637
322.713
322.14
321.566
320.993
320.418
319.843
319.266
318.689
318.11
317.529
316.947
316.363
315.778
315.193
314.617
322.712
322.136
321.559
320.982
320.405
319.827
319.248
318.667
318.086
317.502
316.918
316.332
315.745
315.158
314.572
322.711
322.131
321.552
320.972
320.392
319.811
319.229
318.646
318.062
317.477
316.89
316.301
315.712
315.123
314.541
322.709
322.127
321.545
320.963
320.38
319.797
319.212
318.627
318.04
317.452
316.862
316.271
315.679
315.084
314.483
322.708
322.124
321.539
320.954
320.369
319.783
319.196
318.608
318.018
317.428
316.836
316.242
315.647
315.05
314.452
322.707
322.12
321.533
320.946
320.358
319.769
319.18
318.589
317.998
317.405
316.811
316.215
315.617
315.015
314.406
322.705
322.116
321.527
320.937
320.347
319.756
319.165
318.572
317.979
317.384
316.787
316.189
315.589
314.986
314.381
322.704
322.113
321.521
320.929
320.337
319.744
319.15
318.556
317.96
317.363
316.765
316.165
315.563
314.958
314.346
322.703
322.11
321.516
320.922
320.327
319.732
319.137
318.54
317.942
317.344
316.744
316.142
315.54
314.935
314.33
322.702
322.107
321.511
320.915
320.318
319.721
319.123
318.525
317.925
317.325
316.723
316.121
315.517
314.914
314.314
322.701
322.104
321.506
320.908
320.31
319.711
319.111
318.511
317.909
317.307
316.704
316.1
315.495
314.889
314.282
322.7
322.101
321.501
320.901
320.301
319.7
319.099
318.497
317.894
317.29
316.685
316.079
315.472
314.865
314.261
322.699
322.098
321.497
320.895
320.293
319.691
319.088
318.484
317.879
317.274
316.667
316.06
315.451
314.84
314.223
322.699
322.096
321.493
320.889
320.286
319.682
319.077
318.471
317.865
317.258
316.65
316.041
315.43
314.818
314.204
322.698
322.093
321.489
320.884
320.278
319.673
319.066
318.46
317.852
317.243
316.634
316.023
315.411
314.797
314.177
322.697
322.091
321.485
320.878
320.272
319.664
319.057
318.448
317.839
317.229
316.619
316.007
315.394
314.78
314.165
322.696
322.089
321.481
320.873
320.265
319.656
319.047
318.438
317.827
317.216
316.604
315.991
315.378
314.765
314.154
322.696
322.087
321.478
320.868
320.259
319.649
319.038
318.427
317.816
317.203
316.59
315.976
315.362
314.747
314.132
322.695
322.085
321.474
320.864
320.253
319.642
319.03
318.418
317.805
317.191
316.577
315.962
315.346
314.731
314.118
322.694
322.083
321.471
320.859
320.247
319.635
319.022
318.408
317.794
317.179
316.564
315.948
315.331
314.713
314.094
322.694
322.081
321.468
320.855
320.242
319.628
319.014
318.4
317.784
317.168
316.552
315.934
315.316
314.697
314.079
322.693
322.079
321.466
320.851
320.237
319.622
319.007
318.391
317.775
317.158
316.54
315.921
315.301
314.679
314.054
322.693
322.078
321.463
320.848
320.232
319.617
319
318.384
317.766
317.148
316.529
315.909
315.288
314.665
314.041
322.692
322.076
321.46
320.844
320.228
319.611
318.994
318.376
317.758
317.139
316.519
315.898
315.276
314.652
314.024
322.692
322.075
321.458
320.841
320.224
319.606
318.988
318.369
317.75
317.13
316.51
315.888
315.265
314.641
314.016
322.691
322.074
321.456
320.838
320.22
319.602
318.983
318.363
317.743
317.122
316.501
315.879
315.256
314.632
314.01
322.691
322.073
321.454
320.835
320.217
319.597
318.978
318.357
317.736
317.115
316.493
315.87
315.246
314.622
313.997
322.69
322.071
321.452
320.833
320.213
319.593
318.973
318.352
317.73
317.108
316.485
315.862
315.238
314.613
313.989
322.69
322.07
321.451
320.831
320.21
319.59
318.969
318.347
317.725
317.102
316.478
315.854
315.229
314.604
313.976
322.69
322.07
321.449
320.829
320.208
319.586
318.965
318.343
317.72
317.096
316.472
315.847
315.222
314.595
313.969
322.69
322.069
321.448
320.827
320.205
319.583
318.961
318.339
317.715
317.091
316.467
315.841
315.215
314.587
313.957
322.689
322.068
321.447
320.825
320.203
319.581
318.958
318.335
317.711
317.087
316.462
315.835
315.208
314.58
313.951
322.689
322.067
321.446
320.824
320.201
319.579
318.955
318.332
317.708
317.083
316.457
315.831
315.203
314.574
313.943
322.689
322.067
321.445
320.822
320.2
319.577
318.953
318.329
317.705
317.08
316.454
315.827
315.199
314.57
313.94
322.689
322.066
321.444
320.821
320.198
319.575
318.951
318.327
317.702
317.077
316.451
315.824
315.196
314.567
313.938
322.689
322.066
321.443
320.821
320.197
319.574
318.95
318.325
317.7
317.075
316.448
315.821
315.193
314.564
313.934
322.689
322.066
321.443
320.82
320.197
319.573
318.949
318.324
317.699
317.073
316.447
315.819
315.191
314.562
313.933
322.689
322.066
321.443
320.82
320.196
319.572
318.948
318.324
317.698
317.072
316.446
315.818
315.19
314.561
313.93
322.689
322.066
321.443
320.82
320.196
319.572
318.948
318.323
317.698
317.072
316.445
315.818
315.189
314.56
313.93
322.689
322.066
321.443
320.82
320.196
319.572
318.948
318.323
317.698
317.072
316.445
315.818
315.189
314.56
313.93
322.689
322.066
321.443
320.82
320.197
319.573
318.949
318.324
317.699
317.073
316.446
315.819
315.19
314.561
313.931
322.689
322.066
321.443
320.821
320.197
319.574
318.95
318.325
317.7
317.074
316.448
315.82
315.192
314.563
313.933
322.689
322.066
321.444
320.821
320.198
319.575
318.951
318.327
317.702
317.076
316.45
315.822
315.194
314.565
313.934
322.689
322.067
321.445
320.822
320.2
319.577
318.953
318.329
317.704
317.079
316.452
315.825
315.197
314.568
313.936
322.689
322.067
321.446
320.824
320.201
319.579
318.955
318.332
317.707
317.082
316.456
315.829
315.201
314.572
313.941
322.689
322.068
321.447
320.825
320.203
319.581
318.958
318.335
317.711
317.086
316.46
315.834
315.206
314.577
313.946
322.69
322.069
321.448
320.827
320.205
319.584
318.961
318.338
317.715
317.09
316.465
315.839
315.212
314.584
313.955
322.69
322.07
321.449
320.829
320.208
319.587
318.965
318.342
317.719
317.096
316.471
315.846
315.219
314.591
313.961
322.69
322.071
321.451
320.831
320.211
319.59
318.969
318.347
317.725
317.102
316.478
315.853
315.227
314.601
313.975
322.691
322.072
321.453
320.833
320.214
319.594
318.973
318.352
317.731
317.108
316.485
315.86
315.235
314.61
313.983
322.691
322.073
321.455
320.836
320.217
319.598
318.978
318.358
317.737
317.115
316.493
315.869
315.244
314.62
313.996
322.691
322.074
321.457
320.839
320.221
319.603
318.984
318.364
317.744
317.123
316.501
315.878
315.254
314.629
314.002
322.692
322.076
321.459
320.842
320.225
319.608
318.99
318.371
317.752
317.132
316.51
315.888
315.264
314.639
314.009
322.692
322.077
321.462
320.846
320.23
319.613
318.996
318.379
317.76
317.141
316.521
315.899
315.276
314.651
314.025
322.693
322.079
321.464
320.85
320.235
319.619
319.003
318.387
317.769
317.151
316.532
315.911
315.289
314.665
314.037
322.693
322.08
321.467
320.854
320.24
319.626
319.011
318.395
317.779
317.162
316.544
315.925
315.304
314.682
314.059
322.694
322.082
321.47
320.858
320.245
319.632
319.019
318.405
317.79
317.174
316.557
315.939
315.32
314.699
314.075
322.695
322.084
321.474
320.863
320.251
319.64
319.027
318.414
317.801
317.186
316.571
315.955
315.337
314.72
314.105
322.695
322.086
321.477
320.867
320.258
319.647
319.036
318.425
317.813
317.199
316.585
315.971
315.355
314.739
314.122
322.696
322.088
321.481
320.873
320.264
319.655
319.046
318.436
317.825
317.213
316.601
315.987
315.373
314.759
314.148
322.697
322.091
321.484
320.878
320.271
319.664
319.056
318.447
317.838
317.228
316.617
316.004
315.391
314.776
314.161
322.698
322.093
321.489
320.884
320.278
319.673
319.066
318.459
317.852
317.243
316.633
316.023
315.41
314.795
314.174
322.699
322.096
321.493
320.89
320.286
319.682
319.077
318.472
317.866
317.259
316.651
316.042
315.431
314.817
314.203
322.699
322.098
321.497
320.896
320.294
319.692
319.089
318.485
317.881
317.276
316.67
316.063
315.453
314.841
314.223
322.7
322.101
321.502
320.902
320.302
319.702
319.101
318.499
317.897
317.294
316.69
316.085
315.478
314.87
314.261
322.701
322.104
321.507
320.909
320.311
319.712
319.113
318.514
317.914
317.313
316.711
316.108
315.504
314.898
314.287
322.702
322.107
321.512
320.916
320.32
319.723
319.126
318.529
317.931
317.332
316.732
316.132
315.531
314.931
314.336
322.703
322.11
321.517
320.923
320.329
319.735
319.14
318.544
317.948
317.352
316.754
316.156
315.558
314.961
314.363
322.704
322.113
321.522
320.931
320.339
319.746
319.154
318.56
317.966
317.372
316.777
316.181
315.585
314.991
314.402
322.706
322.117
321.528
320.938
320.349
319.759
319.168
318.577
317.985
317.393
316.799
316.206
315.611
315.016
314.421
322.707
322.12
321.533
320.946
320.359
319.771
319.183
318.594
318.004
317.414
316.823
316.231
315.638
315.042
314.44
322.708
322.124
321.539
320.955
320.37
319.784
319.198
318.611
318.024
317.436
316.847
316.257
315.666
315.073
314.48
322.709
322.127
321.545
320.963
320.381
319.797
319.214
318.629
318.044
317.459
316.872
316.284
315.695
315.104
314.507
322.71
322.131
321.552
320.972
320.392
319.811
319.23
318.648
318.065
317.482
316.898
316.312
315.727
315.14
314.555
322.712
322.135
321.558
320.981
320.404
319.826
319.247
318.667
318.087
317.506
316.924
316.341
315.758
315.175
314.587
322.713
322.139
321.565
320.991
320.416
319.84
319.264
318.687
318.109
317.53
316.951
316.371
315.791
315.213
314.643
322.714
322.143
321.572
321
320.428
319.856
319.282
318.708
318.132
317.555
316.978
316.4
315.822
315.245
314.671
322.716
322.148
321.579
321.011
320.441
319.871
319.301
318.729
318.156
317.581
317.006
316.429
315.852
315.277
314.71
322.717
322.152
321.587
321.021
320.455
319.888
319.32
318.751
318.181
317.608
317.034
316.458
315.88
315.302
314.727
322.719
322.157
321.595
321.032
320.469
319.905
319.34
318.774
318.207
317.637
317.064
316.488
315.909
315.326
314.741
322.721
322.162
321.603
321.044
320.484
319.923
319.362
318.799
318.234
317.667
317.096
316.521
315.94
315.353
314.762
322.722
322.167
321.611
321.055
320.499
319.942
319.384
318.825
318.263
317.7
317.132
316.558
315.976
315.381
314.773
322.724
322.172
321.62
321.067
320.515
319.961
319.407
318.852
318.295
317.735
317.171
316.601
316.02
315.419
314.778
322.726
322.177
321.629
321.08
320.531
319.981
319.431
318.88
318.328
317.773
317.216
316.652
316.079
315.484
314.836
291.238
290.583
289.983
289.404
288.836
288.273
287.713
287.156
286.6
286.045
285.491
284.937
284.384
283.83
283.277
291.292
290.644
290.038
289.452
288.877
288.309
287.745
287.183
286.623
286.064
285.506
284.949
284.392
283.835
283.278
291.288
290.677
290.078
289.492
288.914
288.342
287.774
287.208
286.645
286.082
285.521
284.96
284.4
283.84
283.28
291.294
290.7
290.11
289.526
288.947
288.372
287.801
287.232
286.666
286.1
285.535
284.971
284.408
283.844
283.281
291.303
290.721
290.138
289.556
288.977
288.401
287.827
287.255
286.685
286.117
285.549
284.982
284.415
283.849
283.283
291.321
290.744
290.164
289.583
289.004
288.427
287.851
287.277
286.704
286.133
285.562
284.992
284.423
283.853
283.284
291.338
290.768
290.19
289.61
289.031
288.452
287.874
287.298
286.722
286.148
285.575
285.002
284.43
283.858
283.286
291.374
290.797
290.218
289.637
289.056
288.476
287.896
287.318
286.74
286.163
285.587
285.011
284.436
283.862
283.287
291.401
290.827
290.247
289.664
289.082
288.499
287.917
287.337
286.757
286.177
285.599
285.021
284.443
283.866
283.289
291.453
290.863
290.277
289.692
289.107
288.522
287.938
287.355
286.773
286.191
285.61
285.03
284.449
283.87
283.29
291.482
290.895
290.306
289.718
289.131
288.544
287.958
287.373
286.788
286.204
285.621
285.038
284.456
283.873
283.291
291.527
290.928
290.335
289.745
289.155
288.566
287.978
287.39
286.804
286.217
285.632
285.046
284.461
283.877
283.292
291.552
290.958
290.363
289.77
289.178
288.587
287.997
287.407
286.818
286.23
285.642
285.054
284.467
283.88
283.293
291.59
290.986
290.389
289.794
289.201
288.608
288.015
287.424
286.833
286.242
285.652
285.062
284.473
283.884
283.295
291.607
291.011
290.414
289.818
289.223
288.628
288.033
287.44
286.846
286.254
285.662
285.07
284.478
283.887
283.296
291.625
291.035
290.439
289.841
289.244
288.647
288.051
287.455
286.86
286.265
285.671
285.077
284.483
283.89
283.297
291.662
291.063
290.464
289.865
289.265
288.666
288.068
287.47
286.873
286.276
285.68
285.084
284.488
283.893
283.298
291.687
291.091
290.489
289.887
289.286
288.685
288.085
287.485
286.886
286.287
285.689
285.091
284.493
283.896
283.299
291.733
291.122
290.515
289.91
289.306
288.703
288.101
287.499
286.898
286.297
285.697
285.097
284.498
283.899
283.3
291.758
291.149
290.54
289.932
289.326
288.721
288.116
287.513
286.91
286.307
285.705
285.104
284.502
283.901
283.3
291.794
291.176
290.563
289.953
289.345
288.737
288.131
287.526
286.921
286.317
285.713
285.11
284.507
283.904
283.301
291.813
291.198
290.584
289.973
289.362
288.753
288.146
287.538
286.932
286.326
285.721
285.116
284.511
283.907
283.302
291.841
291.22
290.604
289.991
289.379
288.769
288.159
287.55
286.942
286.335
285.728
285.121
284.515
283.909
283.303
291.853
291.237
290.622
290.008
289.395
288.783
288.172
287.562
286.952
286.343
285.735
285.127
284.519
283.911
283.304
291.866
291.254
290.64
290.025
289.411
288.797
288.185
287.573
286.962
286.351
285.741
285.132
284.523
283.913
283.304
291.891
291.273
290.657
290.041
289.425
288.811
288.197
287.584
286.971
286.359
285.748
285.137
284.526
283.916
283.305
291.907
291.291
290.674
290.056
289.439
288.823
288.208
287.594
286.98
286.366
285.754
285.141
284.529
283.918
283.306
291.936
291.311
290.69
290.071
289.453
288.835
288.219
287.603
286.988
286.373
285.759
285.146
284.533
283.919
283.306
291.951
291.328
290.706
290.085
289.465
288.847
288.229
287.612
286.996
286.38
285.765
285.15
284.535
283.921
283.307
291.973
291.345
290.72
290.098
289.477
288.857
288.238
287.62
287.003
286.386
285.77
285.154
284.538
283.923
283.308
291.984
291.358
290.733
290.11
289.488
288.867
288.247
287.628
287.01
286.392
285.775
285.158
284.541
283.924
283.308
292
291.37
290.745
290.121
289.498
288.876
288.256
287.635
287.016
286.397
285.779
285.161
284.543
283.926
283.309
292.007
291.38
290.755
290.131
289.507
288.885
288.263
287.642
287.022
286.402
285.783
285.164
284.546
283.927
283.309
292.013
291.389
290.764
290.14
289.516
288.893
288.27
287.649
287.028
286.407
285.787
285.167
284.548
283.929
283.31
292.026
291.399
290.773
290.148
289.524
288.9
288.277
287.654
287.033
286.411
285.791
285.17
284.55
283.93
283.31
292.034
291.408
290.782
290.156
289.531
288.906
288.283
287.66
287.037
286.415
285.794
285.173
284.552
283.931
283.31
292.048
291.418
290.79
290.163
289.538