/*--------------------------------*- C++ -*----------------------------------*\
| =========                 |                                                 |
| \\      /  F ield         | OpenFOAM: The Open Source CFD Toolbox           |
|  \\    /   O peration     | Version:  5.x                                   |
|   \\  /    A nd           | Web:      www.OpenFOAM.org                      |
|    \\/     M anipulation  |                                                 |
\*---------------------------------------------------------------------------*/
FoamFile
{
    version     2.0;
    format      ascii;
    class       volScalarField;
    location    "1";
    object      gradTx;
}
// * * * * * * * * * * * * * * * * * * * * * * * * * * * * * * * * * * * * * //

dimensions      [0 -1 0 1 0 0 0];

internalField   nonuniform List<scalar> 
6300
(
-56.9155
-56.8565
-56.7381
-56.56
-56.3216
-56.0223
-55.6615
-55.239
-54.7546
-54.2089
-53.6031
-52.9391
-52.2195
-51.4475
-50.6267
-56.9735
-56.9146
-56.7967
-56.6191
-56.3814
-56.0826
-55.7223
-55.2997
-54.8149
-54.2681
-53.6604
-52.9938
-52.271
-51.4954
-50.6711
-57.0891
-57.0307
-56.9137
-56.7374
-56.501
-56.2035
-55.8441
-55.4217
-54.9361
-54.3871
-53.7758
-53.1039
-52.3744
-51.5913
-50.7593
-57.262
-57.2044
-57.0889
-56.9146
-56.6805
-56.3854
-56.0276
-55.606
-55.1195
-54.5675
-53.9506
-53.2706
-52.5306
-51.7354
-50.8909
-57.4912
-57.4348
-57.3216
-57.1504
-56.92
-56.6286
-56.274
-55.8542
-55.3673
-54.8119
-54.1878
-53.4963
-52.7411
-51.928
-51.0647
-57.7757
-57.721
-57.6109
-57.4444
-57.2195
-56.9338
-56.5845
-56.1685
-55.6825
-55.1239
-54.4912
-53.785
-53.0087
-52.1698
-51.279
-58.1136
-58.0612
-57.9557
-57.7955
-57.5784
-57.3014
-56.9606
-56.5515
-56.0692
-55.509
-54.8672
-54.1426
-53.3382
-52.4627
-51.5315
-58.5027
-58.4533
-58.3538
-58.2023
-57.9962
-57.7317
-57.4039
-57.0067
-56.5329
-55.9748
-55.3251
-54.5792
-53.7378
-52.8107
-51.8191
-58.9399
-58.8944
-58.8026
-58.6625
-58.4711
-58.2241
-57.9154
-57.5373
-57.0797
-56.531
-55.8782
-55.1103
-54.2222
-53.2222
-52.139
-59.4212
-59.3806
-59.2984
-59.1728
-59.0005
-58.7769
-58.4953
-58.1461
-57.7167
-57.19
-56.5455
-55.7606
-54.8175
-53.716
-52.4911
-59.9419
-59.907
-59.8364
-59.7284
-59.5799
-59.3865
-59.1414
-58.8341
-58.4496
-57.9659
-57.352
-56.5679
-55.5702
-54.3319
-52.884
-60.4961
-60.4678
-60.4105
-60.323
-60.203
-60.0467
-59.8483
-59.5981
-59.2807
-58.8707
-58.3275
-57.5877
-56.5624
-55.1563
-53.3505
-61.0773
-61.0561
-61.0135
-60.9489
-60.861
-60.7478
-60.6057
-60.4281
-60.2029
-59.9075
-59.4982
-58.8916
-57.9341
-56.3792
-53.9891
-61.6781
-61.6644
-61.6372
-61.5966
-61.543
-61.4765
-61.3973
-61.3042
-61.194
-61.0566
-60.8648
-60.5452
-59.9019
-58.4364
-55.1221
-62.2912
-62.2849
-62.2728
-62.256
-62.2363
-62.2167
-62.2012
-62.1962
-62.2108
-62.2585
-62.3576
-62.5212
-62.6908
-62.3412
-58.2069
-49.8363
-49.0857
-48.3077
-47.5036
-46.6744
-45.8209
-44.9434
-44.0427
-43.1197
-42.1755
-41.2123
-40.2323
-39.2388
-38.2351
-37.2253
-36.2133
-35.2033
-34.1995
-33.2057
-32.2262
-31.2645
-30.3245
-29.4095
-28.5227
-27.667
-26.8449
-26.0586
-25.3098
-24.6002
-23.9308
-23.3025
-22.7158
-22.1712
-21.6689
-21.2087
-20.7906
-20.4145
-20.0802
-19.7873
-19.5358
-19.3254
-19.1559
-19.0272
-18.939
-18.8916
-18.8848
-18.9189
-18.9944
-19.1115
-19.2707
-19.4725
-19.7173
-20.0054
-20.3369
-20.7119
-21.1301
-21.5913
-22.0949
-22.64
-23.2259
-23.8512
-24.5149
-25.2154
-25.9513
-26.7211
-27.5229
-28.3549
-29.2153
-30.1018
-31.0123
-31.9443
-32.8957
-33.8638
-34.8462
-35.8403
-36.8436
-37.8533
-38.8668
-39.8813
-40.894
-41.9022
-42.9033
-43.8946
-44.8737
-45.8377
-46.784
-47.7096
-48.6112
-49.4854
-50.3289
-49.8776
-49.1246
-48.3447
-47.5392
-46.7091
-45.8548
-44.9765
-44.0747
-43.1498
-42.203
-41.2362
-40.2519
-39.2533
-38.2442
-37.2286
-36.2107
-35.1948
-34.1851
-33.1858
-32.2007
-31.2339
-30.289
-29.3695
-28.4786
-27.6193
-26.7941
-26.0052
-25.2543
-24.543
-23.8724
-23.2433
-22.6562
-22.1114
-21.609
-21.149
-20.7311
-20.3553
-20.0213
-19.7288
-19.4776
-19.2675
-19.0983
-18.9697
-18.8816
-18.8339
-18.8269
-18.8606
-18.9354
-19.0518
-19.2104
-19.4117
-19.656
-19.9438
-20.2753
-20.6505
-21.0693
-21.5313
-22.0359
-22.5824
-23.1698
-23.797
-24.4626
-25.1652
-25.9034
-26.6756
-27.48
-28.3149
-29.1782
-30.0679
-30.9816
-31.9171
-32.8719
-33.8436
-34.8296
-35.8274
-36.8344
-37.8481
-38.8655
-39.8838
-40.9004
-41.9123
-42.9171
-43.9121
-44.8948
-45.8629
-46.8134
-47.7435
-48.6499
-49.5291
-50.3774
-49.9593
-49.2014
-48.4178
-47.6098
-46.7782
-45.9228
-45.0433
-44.1394
-43.2111
-42.2591
-41.2852
-40.292
-39.2831
-38.2627
-37.2353
-36.2054
-35.1776
-34.1563
-33.1456
-32.1496
-31.1722
-30.2174
-29.2888
-28.3897
-27.5231
-26.6917
-25.8976
-25.1426
-24.4281
-23.7551
-23.1244
-22.5364
-21.9913
-21.4891
-21.0294
-20.6122
-20.237
-19.9037
-19.6119
-19.3614
-19.1519
-18.9832
-18.8549
-18.7669
-18.719
-18.7113
-18.744
-18.8176
-18.9326
-19.0898
-19.2898
-19.5332
-19.8204
-20.1518
-20.5274
-20.9472
-21.4108
-21.9176
-22.4668
-23.0575
-23.6883
-24.3578
-25.0647
-25.8075
-26.5844
-27.394
-28.2345
-29.1038
-29.9999
-30.9203
-31.8626
-32.8244
-33.8031
-34.7962
-35.8014
-36.816
-37.8375
-38.8628
-39.889
-40.9132
-41.9326
-42.9446
-43.9468
-44.9369
-45.9127
-46.8717
-47.8109
-48.727
-49.6163
-50.4747
-50.0804
-49.3147
-48.5254
-47.7141
-46.8809
-46.025
-45.145
-44.2391
-43.3063
-42.3467
-41.3618
-40.3547
-39.3295
-38.2914
-37.2456
-36.1973
-35.1515
-34.1125
-33.0846
-32.072
-31.0786
-30.1087
-29.1661
-28.2544
-27.377
-26.5363
-25.7346
-24.9734
-24.2542
-23.5778
-22.945
-22.3558
-21.8105
-21.3086
-20.8498
-20.4336
-20.0595
-19.7272
-19.4364
-19.187
-18.9786
-18.8108
-18.6833
-18.5955
-18.5473
-18.5386
-18.5697
-18.6411
-18.7538
-18.9086
-19.1064
-19.3482
-19.6345
-19.9656
-20.3418
-20.763
-21.229
-21.7391
-22.2926
-22.8882
-23.5246
-24.2002
-24.9135
-25.6629
-26.4471
-27.2644
-28.1132
-28.9916
-29.8973
-30.8279
-31.7806
-32.7529
-33.7421
-34.7459
-35.7621
-36.7881
-37.8213
-38.8587
-39.897
-40.9329
-41.9634
-42.986
-43.9985
-44.9992
-45.9863
-46.9579
-47.911
-48.8421
-49.7472
-50.6214
-50.2383
-49.4612
-48.6642
-47.8492
-47.0158
-46.1617
-45.2834
-44.3771
-43.4398
-42.4705
-41.4704
-40.4433
-39.3947
-38.3313
-37.2597
-36.186
-35.1157
-34.053
-33.0021
-31.967
-30.9518
-29.9612
-28.9994
-28.0707
-27.1785
-26.3255
-25.5137
-24.7447
-24.0194
-23.3388
-22.7033
-22.1131
-21.568
-21.0672
-20.6099
-20.1953
-19.8227
-19.4919
-19.2025
-18.9546
-18.7478
-18.5816
-18.4554
-18.3683
-18.3198
-18.3097
-18.3382
-18.4064
-18.5153
-18.6663
-18.8609
-19.1002
-19.3849
-19.7156
-20.0924
-20.5154
-20.9845
-21.4992
-22.0585
-22.6611
-23.3053
-23.9892
-24.711
-25.4693
-26.2627
-27.09
-27.95
-28.8406
-29.7597
-30.7042
-31.6711
-32.6573
-33.6604
-34.6781
-35.7087
-36.75
-37.7994
-38.8535
-39.9085
-40.9603
-42.0055
-43.0415
-44.0668
-45.0805
-46.0821
-47.07
-48.042
-48.9942
-49.9217
-50.8185
-50.4293
-49.6356
-48.8285
-48.0104
-47.1801
-46.333
-45.462
-44.5595
-43.6193
-42.6384
-41.6179
-40.5628
-39.4814
-38.383
-37.2768
-36.1703
-35.0691
-33.977
-32.8973
-31.8336
-30.7903
-29.7725
-28.7857
-27.835
-26.9242
-26.056
-25.2322
-24.4536
-23.7211
-23.0354
-22.3972
-21.8065
-21.2625
-20.764
-20.3094
-19.8974
-19.5269
-19.1978
-18.91
-18.664
-18.4595
-18.2959
-18.1721
-18.0865
-18.038
-18.026
-18.0509
-18.114
-18.2171
-18.3624
-18.5522
-18.7878
-19.0702
-19.4
-19.7774
-20.2025
-20.6755
-21.196
-21.7631
-22.3751
-23.0297
-23.7244
-24.457
-25.2258
-26.0302
-26.8695
-27.7431
-28.6495
-29.5859
-30.5488
-31.534
-32.538
-33.5579
-34.5923
-35.6402
-36.7004
-37.7706
-38.8471
-39.9244
-40.9972
-42.0607
-43.1123
-44.1514
-45.1791
-46.1968
-47.2047
-48.201
-49.1814
-50.1394
-51.0676
-50.6468
-49.8289
-49.0081
-48.1886
-47.3682
-46.5383
-45.6857
-44.796
-43.8573
-42.8633
-41.815
-40.7204
-39.5925
-38.4461
-37.2945
-36.1472
-35.0096
-33.8835
-32.77
-31.6714
-30.5924
-29.5397
-28.5208
-27.5423
-26.6092
-25.7236
-24.8861
-24.0968
-23.356
-22.6647
-22.0237
-21.4333
-20.8923
-20.3984
-19.9486
-19.5405
-19.1726
-18.8449
-18.5585
-18.3145
-18.1133
-17.9541
-17.8347
-17.7523
-17.7047
-17.6904
-17.7098
-17.7649
-17.859
-17.9957
-18.1783
-18.4089
-18.6884
-19.0169
-19.3946
-19.8217
-20.2989
-20.8266
-21.4038
-22.0285
-22.6972
-23.4059
-24.1514
-24.9321
-25.748
-26.6003
-27.4897
-28.4156
-29.3748
-30.3618
-31.3706
-32.396
-33.435
-34.4873
-35.5541
-36.6365
-37.7332
-38.8393
-39.9469
-41.0471
-42.1329
-43.2008
-44.2522
-45.2917
-46.3251
-47.3557
-48.3824
-49.4
-50.3994
-51.3703
-50.8809
-50.0257
-49.1851
-48.3675
-47.5695
-46.776
-45.9626
-45.1029
-44.1748
-43.1663
-42.0787
-40.926
-39.7304
-38.5168
-37.306
-36.1107
-34.9338
-33.7722
-32.6215
-31.4815
-30.3573
-29.2588
-28.198
-27.1852
-26.2263
-25.3224
-24.4715
-23.671
-22.9207
-22.2222
-21.5782
-20.9899
-20.4553
-19.9702
-19.5288
-19.1266
-18.7613
-18.4338
-18.1469
-17.9043
-17.7077
-17.5559
-17.4449
-17.3693
-17.3244
-17.3072
-17.3182
-17.3607
-17.4406
-17.564
-17.7364
-17.9606
-18.2369
-18.5641
-18.9415
-19.3697
-19.8507
-20.3866
-20.9773
-21.6197
-22.3079
-23.0351
-23.7961
-24.5886
-25.4144
-26.2782
-27.1846
-28.1346
-29.124
-30.1439
-31.1838
-32.2349
-33.2935
-34.3616
-35.4458
-36.5523
-37.6824
-38.8294
-39.9799
-41.1179
-42.2306
-43.313
-44.3696
-45.4128
-46.457
-47.5115
-48.5765
-49.6439
-50.7
-51.7295
-51.1161
-50.2006
-49.3287
-48.5173
-47.764
-47.0416
-46.3059
-45.5081
-44.6078
-43.583
-42.4362
-41.1933
-39.8945
-38.5835
-37.2955
-36.0477
-34.8365
-33.6454
-32.4583
-31.2692
-30.0855
-28.9244
-27.807
-26.751
-25.7648
-24.8458
-23.9849
-23.174
-22.4114
-21.7021
-21.0535
-20.4699
-19.9483
-19.4798
-19.0536
-18.6605
-18.2968
-17.9649
-17.6727
-17.429
-17.2387
-17.1
-17.005
-16.9433
-16.9051
-16.8847
-16.8822
-16.904
-16.9604
-17.063
-17.2209
-17.4382
-17.713
-18.0402
-18.4164
-18.8427
-19.3246
-19.8686
-20.4773
-21.1458
-21.8633
-22.6168
-23.3962
-24.1978
-25.0269
-25.8958
-26.8174
-27.7976
-28.8299
-29.8978
-30.9813
-32.0637
-33.1387
-34.2133
-35.3055
-36.4342
-37.6074
-38.8148
-40.0309
-41.225
-42.3719
-43.4619
-44.5059
-45.5322
-46.5735
-47.6516
-48.7668
-49.9032
-51.0381
-52.1489
-51.3293
-50.3119
-49.3842
-48.583
-47.9132
-47.3258
-46.7379
-46.0605
-45.22
-44.1752
-42.9321
-41.541
-40.0763
-38.6174
-37.2273
-35.9326
-34.7104
-33.5133
-32.2985
-31.0498
-29.7817
-28.5277
-27.3282
-26.2169
-25.2075
-24.2864
-23.4271
-22.6082
-21.8262
-21.0953
-20.4362
-19.8616
-19.3656
-18.9296
-18.5315
-18.1534
-17.7874
-17.4401
-17.1298
-16.8777
-16.6965
-16.5822
-16.5185
-16.4846
-16.4615
-16.4374
-16.4123
-16.3984
-16.415
-16.4835
-16.6211
-16.8343
-17.1146
-17.4468
-17.8202
-18.2365
-18.71
-19.2587
-19.8923
-20.6025
-21.3677
-22.1623
-22.9653
-23.7683
-24.5829
-25.4382
-26.3668
-27.3864
-28.4852
-29.6302
-30.7808
-31.9037
-32.9848
-34.0402
-35.1132
-36.2523
-37.4835
-38.7876
-40.1136
-41.3998
-42.5951
-43.6768
-44.6675
-45.6295
-46.6368
-47.7375
-48.9258
-50.1639
-51.4101
-52.6335
-51.4866
-50.2932
-49.2571
-48.4587
-47.9436
-47.6101
-47.2983
-46.8475
-46.1259
-45.0529
-43.6413
-41.9945
-40.2498
-38.5523
-37.0221
-35.7131
-34.5488
-33.4072
-32.1879
-30.8591
-29.4582
-28.0531
-26.7232
-25.5366
-24.5239
-23.639
-22.8119
-21.9903
-21.1684
-20.3862
-19.698
-19.141
-18.6977
-18.326
-17.9817
-17.6297
-17.2524
-16.8629
-16.5041
-16.2253
-16.0593
-15.9926
-15.9902
-16.0116
-16.0206
-15.9926
-15.9275
-15.85
-15.796
-15.8055
-15.9135
-16.135
-16.4425
-16.7953
-17.1634
-17.5492
-17.9881
-18.5274
-19.1982
-19.9808
-20.8308
-21.6968
-22.5353
-23.3231
-24.0814
-24.8759
-25.7857
-26.8621
-28.075
-29.3549
-30.6211
-31.8047
-32.8682
-33.8424
-34.8259
-35.938
-37.2549
-38.729
-40.2536
-41.7057
-42.9815
-44.0227
-44.87
-45.6611
-46.5651
-47.6968
-49.0124
-50.4123
-51.8139
-53.1881
-51.5345
-50.0473
-48.787
-47.9262
-47.7122
-47.8632
-48.059
-48.0242
-47.5378
-46.4181
-44.6891
-42.5893
-40.3555
-38.2466
-36.4988
-35.2858
-34.3548
-33.4133
-32.2356
-30.7729
-29.1413
-27.4707
-25.9127
-24.6068
-23.6568
-22.909
-22.1895
-21.3737
-20.4544
-19.5426
-18.7718
-18.2578
-17.9274
-17.6837
-17.444
-17.1437
-16.7358
-16.2427
-15.764
-15.4117
-15.2799
-15.3116
-15.4287
-15.5573
-15.6342
-15.6023
-15.4615
-15.2689
-15.0867
-14.9867
-15.0436
-15.3127
-15.7061
-16.1228
-16.482
-16.7865
-17.1227
-17.6076
-18.3441
-19.2631
-20.2719
-21.272
-22.1795
-22.9211
-23.5288
-24.1482
-24.9657
-26.1421
-27.5688
-29.1001
-30.5808
-31.8793
-32.8807
-33.6317
-34.3537
-35.3289
-36.8001
-38.598
-40.4977
-42.2656
-43.7053
-44.6477
-45.153
-45.5297
-46.1648
-47.3906
-48.9768
-50.6571
-52.2564
-53.7997
-51.3489
-49.4742
-47.7407
-46.4615
-46.9543
-48.0508
-49.1512
-49.8508
-49.8616
-48.6604
-46.2708
-43.3771
-40.2814
-37.421
-35.2059
-34.4526
-34.1765
-33.7602
-32.6942
-30.9308
-28.8812
-26.7271
-24.7399
-23.1654
-22.4993
-22.1392
-21.7069
-20.907
-19.7305
-18.4967
-17.4769
-17.1114
-17.0332
-17.0368
-16.9949
-16.8134
-16.3433
-15.6029
-14.8432
-14.2817
-14.2664
-14.5089
-14.8517
-15.1789
-15.4057
-15.37
-15.0714
-14.6741
-14.2603
-13.943
-13.8692
-14.3127
-14.9374
-15.5342
-15.8803
-15.9795
-16.0442
-16.3267
-17.2282
-18.4173
-19.7267
-20.9815
-22.0636
-22.713
-22.9606
-23.1361
-23.63
-25.0624
-26.9131
-28.919
-30.8038
-32.3825
-33.2543
-33.4635
-33.5172
-34.0063
-35.875
-38.3208
-40.9315
-43.2983
-45.1452
-45.9019
-45.6207
-45.0258
-44.9135
-46.5648
-48.805
-51.0179
-52.7783
-54.3446
-50.3995
-48.6966
-46.0394
-42.4447
-45.3267
-48.2325
-50.8204
-52.6689
-53.9303
-52.6142
-48.5785
-44.4557
-39.8688
-35.6665
-31.8082
-32.9326
-34.2006
-35.0432
-34.1576
-31.5016
-28.7722
-25.7437
-22.9736
-20.4167
-20.902
-21.4743
-21.7544
-20.9837
-19.09
-17.1438
-15.2405
-15.5523
-16.0223
-16.4566
-16.7479
-16.8998
-16.3412
-14.9918
-13.6379
-12.3664
-12.8828
-13.5626
-14.2983
-14.9462
-15.5565
-15.5176
-14.8245
-14.1041
-13.2961
-12.5499
-11.9506
-13.0532
-14.2098
-15.3076
-15.6354
-15.2232
-14.6533
-14.1555
-15.6993
-17.3993
-19.2613
-20.9407
-22.5721
-23.0846
-22.4972
-21.6665
-20.9438
-23.3811
-26.0347
-28.913
-31.4683
-33.9047
-34.5825
-33.52
-32.0541
-30.6972
-34.1193
-37.8061
-41.7168
-45.0794
-48.1547
-48.6506
-46.5397
-43.8266
-41.1219
-44.8903
-48.6719
-52.0293
-53.5791
-54.1053
-45.5796
-49.2925
-45.6877
-29.1006
-43.6642
-48.8717
-53.5539
-56.3321
-61.7104
-60.4839
-51.0116
-46.2029
-38.9027
-33.417
-21.2357
-31.2065
-34.838
-38.8154
-38.1713
-32.1789
-29.0948
-24.3891
-20.9012
-13.288
-19.1803
-21.2311
-23.316
-22.6786
-18.5263
-15.7299
-9.81543
-13.7665
-15.0637
-16.0833
-16.7029
-18.0107
-17.4791
-14.3885
-12.3148
-7.87764
-11.2649
-12.5371
-13.8726
-14.769
-16.6436
-16.6087
-14.6184
-13.6614
-12.2441
-10.9464
-7.58245
-11.7167
-13.5682
-16.191
-16.4575
-14.6953
-13.1593
-9.0455
-13.9467
-16.149
-19.06
-20.9703
-24.6932
-25.0416
-22.3852
-20.0422
-13.7083
-21.3894
-24.8335
-29.3734
-32.3048
-37.9601
-38.4174
-34.1583
-30.4346
-20.5065
-31.983
-36.969
-43.2917
-47.2742
-54.8783
-55.1528
-48.3254
-42.6149
-28.0085
-43.1961
-49.1489
-55.6423
-55.8526
-49.1413
-51.2151
-52.1318
-52.989
-53.7827
-54.5097
-55.168
-55.7569
-56.276
-56.7262
-57.1085
-57.4242
-57.6747
-57.8613
-57.985
-58.0467
-51.2687
-52.1904
-53.0517
-53.8483
-54.5773
-55.2365
-55.8254
-56.3439
-56.793
-57.1739
-57.4882
-57.7374
-57.9229
-58.0458
-58.1071
-51.3765
-52.3083
-53.178
-53.9807
-54.7135
-55.3744
-55.963
-56.48
-56.9267
-57.3047
-57.616
-57.8625
-58.0457
-58.1671
-58.2276
-51.5397
-52.4876
-53.3702
-54.1822
-54.9204
-55.5834
-56.1713
-56.6854
-57.1278
-57.501
-57.8075
-58.0495
-58.2292
-58.3481
-58.4073
-51.7606
-52.7313
-53.632
-54.4565
-55.2016
-55.8665
-56.4522
-56.9613
-57.397
-57.7628
-58.0621
-58.2977
-58.4722
-58.5875
-58.6448
-52.0423
-53.0443
-53.969
-54.8093
-55.5621
-56.2276
-56.8086
-57.3094
-57.7349
-58.09
-58.379
-58.6058
-58.7732
-58.8836
-58.9384
-52.3897
-53.4336
-54.3894
-55.2487
-56.0087
-56.6721
-57.2441
-57.7318
-58.1422
-58.4821
-58.7571
-58.9718
-59.1299
-59.2339
-59.2854
-52.8099
-53.91
-54.9055
-55.7861
-56.5511
-57.2068
-57.7629
-58.2302
-58.6189
-58.9378
-59.1941
-59.3933
-59.5393
-59.6352
-59.6827
-53.3138
-54.49
-55.5354
-56.438
-57.2015
-57.8397
-58.3692
-58.8061
-59.1643
-59.4551
-59.6871
-59.8665
-59.9977
-60.0836
-60.1261
-53.9178
-55.1997
-56.3071
-57.2276
-57.9761
-58.5798
-59.0665
-59.4591
-59.7758
-60.0302
-60.2316
-60.3867
-60.4999
-60.5739
-60.6105
-54.6479
-56.0828
-57.2644
-58.1878
-58.8945
-59.4359
-59.8561
-60.1864
-60.4484
-60.6568
-60.8212
-60.9476
-61.0398
-61.1002
-61.1301
-55.5429
-57.2184
-58.4789
-59.3635
-59.9771
-60.4127
-60.7343
-60.9802
-61.173
-61.3262
-61.4475
-61.5413
-61.6103
-61.6556
-61.6782
-56.6677
-58.7676
-60.0681
-60.8082
-61.236
-61.5026
-61.6867
-61.8254
-61.9358
-62.0261
-62.0999
-62.1587
-62.2028
-62.2324
-62.2473
-58.224
-61.1145
-62.2166
-62.5638
-62.6545
-62.6739
-62.683
-62.697
-62.7171
-62.741
-62.766
-62.7893
-62.8086
-62.8224
-62.8296
-61.4559
-65.2489
-65.1189
-64.5738
-64.1426
-63.8548
-63.6728
-63.5605
-63.4927
-63.4536
-63.4325
-63.4224
-63.4185
-63.4175
-63.4175
-62.8576
-62.8576
-62.8583
-62.8617
-62.8707
-62.8901
-62.9274
-62.9944
-63.1109
-63.3118
-63.6655
-64.326
-65.722
-69.3885
-82.1976
-63.3715
-63.3766
-63.3878
-63.4074
-63.4391
-63.4889
-63.5658
-63.6846
-63.8693
-64.162
-64.6404
-65.4549
-66.8998
-69.4447
-72.6472
-63.8807
-63.8902
-63.9104
-63.9437
-63.9941
-64.0678
-64.1742
-64.3278
-64.5514
-64.8822
-65.3811
-66.145
-67.3122
-69.0429
-71.7514
-64.3822
-64.3954
-64.4228
-64.467
-64.5318
-64.6229
-64.7486
-64.921
-65.1577
-65.4845
-65.9368
-66.554
-67.332
-67.9608
-66.3374
-64.8734
-64.8894
-64.9226
-64.9751
-65.0503
-65.1529
-65.2895
-65.4683
-65.7002
-65.9984
-66.377
-66.8501
-67.454
-68.4415
-71.5996
-65.3522
-65.3705
-65.4079
-65.4664
-65.5486
-65.6583
-65.7997
-65.9774
-66.1954
-66.4553
-66.7503
-67.0542
-67.3083
-67.4133
-67.2845
-65.8172
-65.837
-65.8775
-65.9401
-66.0269
-66.1405
-66.2833
-66.4569
-66.6603
-66.887
-67.1162
-67.2915
-67.265
-66.5459
-62.8969
-66.2671
-66.2881
-66.3306
-66.3959
-66.4855
-66.6012
-66.7441
-66.9141
-67.1077
-67.3161
-67.518
-67.6676
-67.7017
-67.7117
-69.522
-66.7012
-66.7229
-66.7668
-66.8337
-66.925
-67.0418
-67.1848
-67.3531
-67.5435
-67.7492
-67.9546
-68.1224
-68.1541
-67.6258
-63.8926
-67.119
-67.1411
-67.1858
-67.2536
-67.3458
-67.4632
-67.6063
-67.7749
-67.9673
-68.1817
-68.4158
-68.6701
-68.9943
-69.7638
-73.6095
-67.5202
-67.5425
-67.5874
-67.6556
-67.748
-67.8655
-68.0087
-68.1782
-68.3744
-68.6
-68.8613
-69.1678
-69.5242
-69.7639
-68.0946
-67.9045
-67.9268
-67.9717
-68.0397
-68.1317
-68.2487
-68.3914
-68.561
-68.7596
-68.9929
-69.274
-69.6292
-70.1339
-71.0882
-74.2784
-68.272
-68.2941
-68.3386
-68.4061
-68.4972
-68.6128
-68.754
-68.9219
-69.1191
-69.3519
-69.6337
-69.9851
-70.4302
-70.8579
-69.8572
-68.6228
-68.6446
-68.6885
-68.7549
-68.8445
-68.9581
-69.0964
-69.2605
-69.4521
-69.6762
-69.9434
-70.2743
-70.7373
-71.6179
-74.4203
-68.957
-68.9784
-69.0214
-69.0865
-69.1741
-69.2849
-69.4194
-69.578
-69.761
-69.9701
-70.2073
-70.4702
-70.7532
-71.0415
-71.2889
-69.275
-69.2959
-69.3378
-69.4012
-69.4865
-69.5941
-69.7242
-69.8765
-70.0502
-70.2437
-70.4516
-70.6503
-70.7643
-70.4917
-68.3487
-69.577
-69.5973
-69.6381
-69.6996
-69.7823
-69.8864
-70.0119
-70.1582
-70.3239
-70.5067
-70.7007
-70.8876
-71.0427
-71.239
-72.6272
-69.8635
-69.8832
-69.9227
-69.9822
-70.0621
-70.1626
-70.2837
-70.4245
-70.5842
-70.7613
-70.9531
-71.1453
-71.2914
-71.1567
-69.2023
-70.1349
-70.1539
-70.1921
-70.2495
-70.3266
-70.4234
-70.54
-70.6758
-70.8305
-71.0052
-71.2036
-71.433
-71.7341
-72.3363
-74.7331
-70.3917
-70.41
-70.4467
-70.5021
-70.5762
-70.6693
-70.7813
-70.9119
-71.0613
-71.232
-71.4309
-71.6694
-71.9664
-72.2679
-71.6552
-70.6342
-70.6518
-70.6872
-70.7403
-70.8115
-70.9008
-71.008
-71.1329
-71.2755
-71.4384
-71.6292
-71.8632
-72.1943
-72.8326
-74.8143
-70.8631
-70.88
-70.9139
-70.9649
-71.0331
-71.1186
-71.2209
-71.3396
-71.4739
-71.625
-71.7957
-71.988
-72.2078
-72.4625
-72.7274
-71.0787
-71.095
-71.1275
-71.1764
-71.2417
-71.3233
-71.4209
-71.5333
-71.6591
-71.7973
-71.9456
-72.0917
-72.1959
-72.0836
-70.8445
-71.2816
-71.2972
-71.3283
-71.3752
-71.4377
-71.5158
-71.6089
-71.7156
-71.834
-71.9618
-72.0954
-72.2229
-72.3332
-72.4853
-73.4037
-71.4722
-71.4871
-71.517
-71.5619
-71.6219
-71.6967
-71.7858
-71.8877
-72.0005
-72.1218
-72.2476
-72.3642
-72.4403
-72.3531
-71.3386
-71.6509
-71.6652
-71.6939
-71.737
-71.7946
-71.8664
-71.9521
-72.0503
-72.1595
-72.2781
-72.4046
-72.5319
-72.6598
-72.863
-73.8554
-71.8182
-71.8319
-71.8595
-71.9009
-71.9562
-72.0253
-72.108
-72.2032
-72.3101
-72.4285
-72.5591
-72.6975
-72.8258
-72.8231
-71.8155
-71.9744
-71.9876
-72.0141
-72.0538
-72.107
-72.1736
-72.2535
-72.346
-72.4509
-72.5697
-72.7067
-72.8683
-73.0815
-73.4792
-74.8916
-72.12
-72.1327
-72.1581
-72.1962
-72.2474
-72.3115
-72.3885
-72.4781
-72.5804
-72.6976
-72.8356
-73.0015
-73.2081
-73.4289
-73.1734
-72.2553
-72.2675
-72.2918
-72.3285
-72.3775
-72.4392
-72.5132
-72.5994
-72.6977
-72.8105
-72.9434
-73.1048
-73.3235
-73.7077
-74.787
-72.3807
-72.3924
-72.4157
-72.4508
-72.4979
-72.5569
-72.6278
-72.7101
-72.8033
-72.9088
-73.0296
-73.1666
-73.323
-73.5018
-73.6814
-72.4965
-72.5077
-72.53
-72.5637
-72.6088
-72.6653
-72.7329
-72.811
-72.8987
-72.996
-73.103
-73.213
-73.3059
-73.2937
-72.7206
-72.603
-72.6137
-72.6352
-72.6674
-72.7106
-72.7646
-72.8291
-72.9032
-72.9857
-73.0758
-73.1726
-73.2696
-73.3607
-73.4734
-73.9531
-72.7006
-72.7109
-72.7314
-72.7624
-72.8037
-72.8554
-72.917
-72.9876
-73.0657
-73.1504
-73.2405
-73.3285
-73.3994
-73.3966
-72.9678
-72.7896
-72.7994
-72.8192
-72.8488
-72.8885
-72.9381
-72.9971
-73.0646
-73.1393
-73.2206
-73.3082
-73.3976
-73.4881
-73.6139
-74.0943
-72.8702
-72.8797
-72.8986
-72.9271
-72.9652
-73.0129
-73.0696
-73.1346
-73.2067
-73.2859
-73.3729
-73.4641
-73.5513
-73.5831
-73.1851
-72.9428
-72.9519
-72.9701
-72.9976
-73.0342
-73.0801
-73.1348
-73.1976
-73.2675
-73.3453
-73.433
-73.5317
-73.6519
-73.8491
-74.4693
-73.0075
-73.0163
-73.0339
-73.0604
-73.0957
-73.14
-73.1928
-73.2534
-73.3212
-73.3971
-73.4838
-73.5826
-73.6979
-73.8196
-73.7546
-73.0647
-73.0732
-73.0902
-73.1157
-73.1499
-73.1927
-73.2437
-73.3022
-73.3677
-73.4408
-73.5245
-73.6204
-73.7385
-73.9181
-74.3523
-73.1144
-73.1226
-73.1391
-73.1639
-73.197
-73.2384
-73.2877
-73.3442
-73.407
-73.4767
-73.5551
-73.641
-73.7353
-73.8379
-73.9341
-73.1569
-73.1649
-73.181
-73.205
-73.2372
-73.2774
-73.3251
-73.3796
-73.4399
-73.506
-73.5787
-73.6543
-73.7252
-73.7606
-73.6027
-73.1924
-73.2002
-73.2159
-73.2393
-73.2707
-73.3098
-73.3563
-73.4091
-73.4671
-73.5301
-73.5986
-73.669
-73.7387
-73.8157
-74.0029
-73.221
-73.2286
-73.2439
-73.267
-73.2977
-73.336
-73.3813
-73.4328
-73.4891
-73.5499
-73.6156
-73.6825
-73.7461
-73.7926
-73.7317
-73.2427
-73.2502
-73.2653
-73.288
-73.3183
-73.356
-73.4006
-73.4511
-73.5062
-73.5657
-73.6301
-73.6965
-73.7643
-73.8424
-74.0007
-73.2577
-73.2651
-73.2801
-73.3026
-73.3326
-73.3699
-73.4141
-73.4641
-73.5187
-73.5776
-73.6416
-73.7078
-73.7743
-73.8349
-73.8372
-73.266
-73.2734
-73.2883
-73.3108
-73.3407
-73.3779
-73.422
-73.4718
-73.5264
-73.5855
-73.6498
-73.7172
-73.7874
-73.8661
-73.9866
-73.2676
-73.275
-73.29
-73.3125
-73.3425
-73.3799
-73.4241
-73.4743
-73.5293
-73.589
-73.6544
-73.7228
-73.7934
-73.8667
-73.9481
-73.2625
-73.27
-73.2851
-73.3078
-73.3381
-73.3758
-73.4206
-73.4714
-73.5272
-73.5882
-73.6551
-73.7254
-73.7964
-73.8601
-73.8791
-73.2506
-73.2583
-73.2736
-73.2966
-73.3273
-73.3657
-73.4111
-73.4629
-73.52
-73.5825
-73.6518
-73.7258
-73.8034
-73.8828
-73.9503
-73.2319
-73.2398
-73.2554
-73.2789
-73.3102
-73.3493
-73.3958
-73.4487
-73.5072
-73.5717
-73.6436
-73.7219
-73.8082
-73.9121
-74.0882
-73.2064
-73.2144
-73.2304
-73.2544
-73.2865
-73.3266
-73.3742
-73.4285
-73.4887
-73.555
-73.6294
-73.7108
-73.7997
-73.8896
-73.9003
-73.1737
-73.1819
-73.1984
-73.2232
-73.2562
-73.2974
-73.3464
-73.4023
-73.4641
-73.5323
-73.6085
-73.6927
-73.7895
-73.9203
-74.2079
-73.1339
-73.1423
-73.1594
-73.1849
-73.219
-73.2616
-73.3122
-73.3698
-73.4335
-73.5033
-73.5806
-73.6643
-73.7545
-73.8404
-73.7823
-73.0866
-73.0954
-73.113
-73.1395
-73.1749
-73.219
-73.2714
-73.3311
-73.3969
-73.4685
-73.5467
-73.6295
-73.7214
-73.8589
-74.2893
-73.0317
-73.0408
-73.0592
-73.0867
-73.1235
-73.1694
-73.2239
-73.2861
-73.3545
-73.4286
-73.5078
-73.5868
-73.6555
-73.6722
-73.3705
-72.969
-72.9785
-72.9976
-73.0262
-73.0646
-73.1125
-73.1695
-73.2346
-73.3065
-73.3844
-73.4675
-73.5496
-73.6245
-73.705
-74.007
-72.8981
-72.908
-72.9279
-72.9579
-72.9979
-73.0481
-73.1079
-73.1765
-73.2527
-73.3361
-73.4261
-73.5158
-73.5885
-73.5824
-73.1975
-72.8188
-72.8292
-72.85
-72.8812
-72.9231
-72.9756
-73.0385
-73.1109
-73.1922
-73.2826
-73.3834
-73.492
-73.6062
-73.721
-73.8167
-72.7308
-72.7416
-72.7633
-72.796
-72.8398
-72.8948
-72.9608
-73.0372
-73.1236
-73.2213
-73.3334
-73.4627
-73.6223
-73.8711
-74.5226
-72.6338
-72.6451
-72.6677
-72.7019
-72.7476
-72.8051
-72.8741
-72.9543
-73.0456
-73.1494
-73.27
-73.4104
-73.5755
-73.7398
-73.582
-72.5274
-72.5392
-72.5628
-72.5984
-72.6461
-72.7061
-72.7781
-72.8618
-72.957
-73.0653
-73.1911
-73.3393
-73.5282
-73.8303
-74.6713
-72.4113
-72.4236
-72.4482
-72.4853
-72.535
-72.5974
-72.6723
-72.7592
-72.8576
-72.9685
-73.0948
-73.2383
-73.401
-73.545
-73.2246
-72.2852
-72.298
-72.3236
-72.3622
-72.4139
-72.4788
-72.5566
-72.6466
-72.7478
-72.8603
-72.9851
-73.1221
-73.2858
-73.5804
-74.716
-72.1487
-72.162
-72.1886
-72.2287
-72.2825
-72.3499
-72.4307
-72.524
-72.6285
-72.7429
-72.8652
-72.9856
-73.0787
-73.0299
-72.1034
-72.0015
-72.0153
-72.0429
-72.0846
-72.1404
-72.2105
-72.2945
-72.3917
-72.5005
-72.6193
-72.7451
-72.8663
-72.9689
-73.0872
-73.7808
-71.8432
-71.8575
-71.8861
-71.9293
-71.9872
-72.0601
-72.1476
-72.2492
-72.3638
-72.4903
-72.6263
-72.7582
-72.8472
-72.743
-71.7116
-71.6735
-71.6883
-71.7179
-71.7626
-71.8226
-71.8982
-71.9893
-72.0957
-72.217
-72.3542
-72.5087
-72.6781
-72.8585
-73.0411
-73.1953
-71.492
-71.5073
-71.5379
-71.584
-71.646
-71.7242
-71.8187
-71.9296
-72.0576
-72.2053
-72.3791
-72.5886
-72.8673
-73.3569
-74.8065
-71.2984
-71.3141
-71.3457
-71.3932
-71.4571
-71.5376
-71.635
-71.7497
-71.8826
-72.0377
-72.2231
-72.4491
-72.7284
-73.0042
-72.552
-71.0924
-71.1086
-71.141
-71.1898
-71.2554
-71.338
-71.4378
-71.555
-71.6905
-71.8483
-72.0371
-72.2709
-72.5908
-73.1553
-74.897
-70.8737
-70.8903
-70.9236
-70.9737
-71.0408
-71.1252
-71.2267
-71.3454
-71.4813
-71.6369
-71.8181
-72.0313
-72.2821
-72.487
-71.6941
-70.642
-70.659
-70.6931
-70.7444
-70.8131
-70.8991
-71.0022
-71.1217
-71.2566
-71.4071
-71.5752
-71.7636
-72.0041
-72.5099
-74.739
-70.3969
-70.4144
-70.4493
-70.5019
-70.5722
-70.6599
-70.7647
-70.8852
-71.0193
-71.1646
-71.3165
-71.4581
-71.5406
-71.3341
-69.3553
-70.1382
-70.1561
-70.1921
-70.246
-70.318
-70.4077
-70.5146
-70.6371
-70.7724
-70.9169
-71.0633
-71.1917
-71.2768
-71.3873
-72.6149
-69.8656
-69.884
-69.9209
-69.9763
-70.0502
-70.1424
-70.2522
-70.3779
-70.5174
-70.6673
-70.8208
-70.9536
-70.9941
-70.6629
-68.5839
-69.5786
-69.5976
-69.6356
-69.6926
-69.7687
-69.8637
-69.9769
-70.1073
-70.2534
-70.4146
-70.591
-70.7778
-70.9684
-71.1504
-71.2929
-69.2771
-69.2966
-69.3357
-69.3945
-69.473
-69.571
-69.6881
-69.8236
-69.9771
-70.1508
-70.3523
-70.5977
-70.9475
-71.6635
-74.1212
-68.9605
-68.9806
-69.021
-69.0816
-69.1625
-69.2638
-69.3849
-69.5253
-69.6849
-69.8672
-70.0815
-70.3431
-70.671
-70.9652
-69.9646
-68.6285
-68.6492
-68.6908
-68.7533
-68.8369
-68.9416
-69.0668
-69.2116
-69.3754
-69.5607
-69.7762
-70.0408
-70.4168
-71.1642
-73.8451
-68.2807
-68.302
-68.3448
-68.4092
-68.4956
-68.6039
-68.7334
-68.8826
-69.0493
-69.2327
-69.435
-69.6592
-69.9037
-70.0185
-68.4525
-67.9167
-67.9385
-67.9824
-68.0488
-68.1381
-68.2503
-68.3849
-68.5394
-68.7098
-68.8911
-69.0771
-69.2617
-69.4794
-70.0384
-73.1468
-67.536
-67.5583
-67.6032
-67.6713
-67.7635
-67.8801
-68.0208
-68.183
-68.3612
-68.5457
-68.7184
-68.8396
-68.8169
-68.286
-65.0392
-67.1386
-67.1611
-67.2065
-67.276
-67.3708
-67.4921
-67.6403
-67.8136
-68.0066
-68.2079
-68.3938
-68.5156
-68.5062
-68.418
-69.6762
-66.7242
-66.7466
-66.792
-66.8621
-66.9587
-67.0843
-67.2407
-67.4284
-67.6446
-67.8803
-68.1121
-68.2809
-68.2492
-67.6131
-64.6441
-66.2929
-66.3147
-66.3592
-66.4285
-66.5255
-66.6539
-66.8179
-67.0216
-67.2675
-67.5548
-67.8727
-68.1838
-68.4109
-68.4266
-68.1308
-65.8452
-65.8657
-65.9081
-65.9747
-66.0694
-66.1976
-66.3661
-66.5835
-66.86
-67.2076
-67.6363
-68.1434
-68.7184
-69.4548
-71.4306
-65.3818
-65.4004
-65.4389
-65.5003
-65.5891
-65.7122
-65.8789
-66.1024
-66.4015
-66.8035
-67.3441
-68.0542
-68.9126
-69.6206
-68.5836
-64.9043
-64.92
-64.9528
-65.0058
-65.0841
-65.1954
-65.3507
-65.567
-65.8701
-66.3026
-66.9327
-67.8603
-69.2103
-70.9964
-72.5716
-64.4146
-64.4264
-64.4514
-64.4927
-64.5553
-64.6468
-64.7789
-64.9693
-65.2474
-65.6642
-66.3132
-67.3716
-69.204
-72.5169
-77.9266
-63.9154
-63.9224
-63.9377
-63.9639
-64.0054
-64.0691
-64.165
-64.309
-64.5268
-64.8641
-65.4081
-66.3438
-68.1686
-72.5796
-86.8005
-86.8963
-72.6331
-68.1588
-66.3096
-65.3738
-64.8398
-64.5148
-64.3092
-64.1759
-64.0887
-64.0321
-63.9959
-63.9735
-63.9607
-63.9549
-78.5503
-72.5468
-69.0984
-67.2519
-66.2127
-65.5895
-65.1962
-64.938
-64.7635
-64.644
-64.5621
-64.5066
-64.4704
-64.4485
-64.4383
-72.145
-70.685
-68.9245
-67.6317
-66.7617
-66.1789
-65.7825
-65.5069
-65.3117
-65.1721
-65.0727
-65.0031
-64.9561
-64.9272
-64.9134
-69.0148
-69.0307
-68.4247
-67.7162
-67.1099
-66.6384
-66.2837
-66.0184
-65.8197
-65.6713
-65.5618
-65.4828
-65.4283
-65.3941
-65.3777
-65.8904
-67.8072
-67.9948
-67.7282
-67.3632
-67.0162
-66.7215
-66.4819
-66.2913
-66.1424
-66.0287
-65.9445
-65.8853
-65.8476
-65.8293
-68.4218
-67.7833
-67.8795
-67.8066
-67.6028
-67.3572
-67.1197
-66.9096
-66.7324
-66.588
-66.4742
-66.3879
-66.3261
-66.2863
-66.2669
-64.4443
-67.248
-67.8804
-67.974
-67.8702
-67.6919
-67.4973
-67.3127
-67.1492
-67.0113
-66.8996
-66.8133
-66.7506
-66.7097
-66.6897
-69.7096
-68.2194
-68.2543
-68.2769
-68.1881
-68.0372
-67.8667
-67.6993
-67.5468
-67.4151
-67.3065
-67.2212
-67.1586
-67.1175
-67.0972
-64.8559
-68.1302
-68.6357
-68.6552
-68.5476
-68.3956
-68.2323
-68.0737
-67.9284
-67.8016