/*--------------------------------*- C++ -*----------------------------------*\
| =========                 |                                                 |
| \\      /  F ield         | OpenFOAM: The Open Source CFD Toolbox           |
|  \\    /   O peration     | Version:  5.x                                   |
|   \\  /    A nd           | Web:      www.OpenFOAM.org                      |
|    \\/     M anipulation  |                                                 |
\*---------------------------------------------------------------------------*/
FoamFile
{
    version     2.0;
    format      ascii;
    class       volScalarField;
    location    "1";
    object      gradTy;
}
// * * * * * * * * * * * * * * * * * * * * * * * * * * * * * * * * * * * * * //

dimensions      [0 -1 0 1 0 0 0];

internalField   nonuniform List<scalar> 
6300
(
32271.5
32214.6
32157.7
32101.1
32044.6
31988.4
31932.5
31877
31821.9
31767.4
31713.4
31660.1
31607.5
31555.6
31504.6
-0.0433482
-0.130223
-0.217628
-0.305847
-0.395052
-0.485266
-0.57632
-0.667814
-0.759098
-0.84928
-0.937272
-1.02189
-1.10203
-1.17682
-1.24589
-0.0720394
-0.216444
-0.361796
-0.508617
-0.657249
-0.807779
-0.959965
-1.11316
-1.26628
-1.41777
-1.56571
-1.70797
-1.84247
-1.96756
-2.08243
-0.100394
-0.301695
-0.504472
-0.70955
-0.917516
-1.1286
-1.34256
-1.55855
-1.77504
-1.98976
-2.19979
-2.40175
-2.59225
-2.76846
-2.92888
-0.128239
-0.38545
-0.644802
-0.907536
-1.17459
-1.44646
-1.72302
-2.00332
-2.28544
-2.56632
-2.84181
-3.10688
-3.35617
-3.58501
-3.79058
-0.155344
-0.467042
-0.781716
-1.10115
-1.42679
-1.75956
-2.09964
-2.44617
-2.79695
-3.14815
-3.49413
-3.82764
-4.14043
-4.42472
-4.67522
-0.181421
-0.545614
-0.913807
-1.28847
-1.67174
-2.06522
-2.46967
-2.88462
-3.30789
-3.73501
-4.15874
-4.56892
-4.953
-5.29798
-5.59386
-0.206135
-0.620153
-1.03937
-1.4671
-1.9064
-2.3598
-2.82906
-3.3146
-3.81481
-4.32507
-4.83672
-5.33607
-5.80441
-6.22008
-6.56387
-0.229091
-0.689456
-1.15636
-1.63409
-2.12682
-2.63839
-3.17202
-3.72975
-4.31147
-4.91354
-5.52676
-6.13394
-6.70816
-7.21367
-7.61343
-0.249848
-0.752178
-1.26243
-1.78599
-2.32828
-2.89477
-3.49072
-4.1207
-4.78756
-5.49062
-6.22251
-6.9644
-7.68013
-8.31243
-8.78982
-0.267955
-0.806922
-1.35514
-1.91903
-2.50539
-3.12152
-3.77522
-4.47456
-5.22719
-6.03854
-6.90786
-7.82053
-8.73495
-9.56539
-10.1753
-0.282987
-0.852362
-1.43208
-2.02947
-2.65259
-3.31054
-4.01386
-4.77487
-5.60782
-6.52812
-7.54937
-8.67431
-9.87306
-11.0381
-11.9204
-0.294597
-0.887408
-1.49125
-2.11406
-2.76481
-3.45402
-4.1946
-5.003
-5.90074
-6.91633
-8.08661
-9.45363
-11.0441
-12.7931
-14.3242
-0.302571
-0.911371
-1.53134
-2.1706
-2.83842
-3.54594
-4.3073
-5.1415
-6.07543
-7.14937
-8.42651
-10.0088
-12.0561
-14.7655
-18.0181
-0.306866
-0.924104
-1.55204
-2.19845
-2.87217
-3.58383
-4.34696
-5.17997
-6.10971
-7.17869
-8.46067
-10.0983
-12.4055
-16.194
-23.9982
31458.5
31417.3
31376.7
31336.7
31297.5
31258.9
31221.1
31184
31147.7
31112.1
31077.3
31043.4
31010.3
30978
30946.5
30915.9
30886.2
30857.3
30829.2
30802
30775.5
30749.9
30725
30700.9
30677.5
30654.8
30632.8
30611.4
30590.7
30570.5
30550.8
30531.7
30513
30494.8
30477
30459.5
30442.4
30425.5
30408.9
30392.6
30376.4
30360.4
30344.5
30328.8
30313
30297.3
30281.6
30265.8
30250
30234
30217.9
30201.6
30185.1
30168.3
30151.3
30133.9
30116.1
30097.9
30079.3
30060.3
30040.7
30020.5
29999.9
29978.6
29956.6
29934.1
29910.8
29886.8
29862.1
29836.7
29810.5
29783.5
29755.7
29727.1
29697.6
29667.3
29636.2
29604.2
29571.4
29537.8
29503.3
29467.9
29431.8
29394.8
29357
29318.3
29279
29238.8
29197.9
29156.3
-1.30411
-1.35368
-1.40054
-1.44543
-1.48906
-1.53187
-1.574
-1.61513
-1.65458
-1.69133
-1.72422
-1.75209
-1.77395
-1.78904
-1.7969
-1.79732
-1.79029
-1.7759
-1.75432
-1.72576
-1.69049
-1.64884
-1.60124
-1.54821
-1.49034
-1.42827
-1.36266
-1.29415
-1.22332
-1.15075
-1.07696
-1.0024
-0.927465
-0.852467
-0.777631
-0.703096
-0.62894
-0.555195
-0.481873
-0.408973
-0.336482
-0.264359
-0.192519
-0.120822
-0.0490758
0.0229485
0.0954824
0.168725
0.242807
0.317774
0.393572
0.470061
0.547025
0.624196
0.701262
0.777883
0.853699
0.92834
1.00145
1.07269
1.14178
1.2085
1.27265
1.33405
1.39254
1.4479
1.4999
1.54827
1.59277
1.63321
1.66942
1.70131
1.72884
1.75192
1.77046
1.78434
1.79341
1.79758
1.79681
1.79117
1.78079
1.76583
1.74638
1.7224
1.69369
1.65991
1.62065
1.57548
1.52412
1.46645
-2.17864
-2.26017
-2.33705
-2.41078
-2.48274
-2.55391
-2.62459
-2.69426
-2.76159
-2.82469
-2.88134
-2.92938
-2.96701
-2.9929
-3.00635
-3.0071
-2.99522
-2.97098
-2.93468
-2.88668
-2.82736
-2.75727
-2.67712
-2.58779
-2.49033
-2.38586
-2.2755
-2.16036
-2.04143
-1.91967
-1.79596
-1.67108
-1.5457
-1.42036
-1.29542
-1.17109
-1.04746
-0.924545
-0.802357
-0.680895
-0.560158
-0.440105
-0.32061
-0.201439
-0.0822398
0.0374167
0.157975
0.27982
0.403207
0.528219
0.65476
0.782567
0.911257
1.04036
1.16933
1.29759
1.42452
1.54948
1.67184
1.79102
1.90653
2.01802
2.12519
2.2278
2.3256
2.41823
2.50529
2.58629
2.66079
2.72839
2.78889
2.84214
2.88811
2.92673
2.95783
2.98117
2.99645
3.00344
3.00206
2.99245
2.97492
2.94985
2.9175
2.87786
2.83057
2.77496
2.71018
2.63538
2.54994
2.45363
-3.06178
-3.17346
-3.27825
-3.37882
-3.47773
-3.57686
-3.67686
-3.77696
-3.87495
-3.96757
-4.05109
-4.12193
-4.17719
-4.21495
-4.23434
-4.23528
-4.2182
-4.18366
-4.13215
-4.0641
-3.97998
-3.88043
-3.76642
-3.63929
-3.50062
-3.35211
-3.19544
-3.03219
-2.86379
-2.69157
-2.51679
-2.34061
-2.16403
-1.98781
-1.81246
-1.63819
-1.46503
-1.29294
-1.12187
-0.951833
-0.782897
-0.615079
-0.448259
-0.282104
-0.116058
0.0506022
0.218645
0.388737
0.56132
0.736533
0.914204
1.0939
1.27501
1.45682
1.63854
1.81935
1.99834
2.17454
2.34698
2.51479
2.67728
2.83394
2.98449
3.1287
3.2663
3.39683
3.51964
3.63394
3.73895
3.83408
3.91902
3.99372
4.05824
4.11261
4.15664
4.18987
4.21169
4.22161
4.21942
4.20538
4.18017
4.14462
4.09937
4.04458
3.97967
3.90345
3.81435
3.71081
3.59164
3.4563
-3.95792
-4.09654
-4.22539
-4.34912
-4.47232
-4.59846
-4.72896
-4.86268
-4.99602
-5.12356
-5.23913
-5.33695
-5.41259
-5.46349
-5.48891
-5.48947
-5.46638
-5.42081
-5.35348
-5.26474
-5.15487
-5.02445
-4.8747
-4.70748
-4.52514
-4.33017
-4.12494
-3.91151
-3.69172
-3.46723
-3.23972
-3.0108
-2.78189
-2.55409
-2.32799
-2.10373
-1.88113
-1.65992
-1.43994
-1.22124
-1.00408
-0.788663
-0.574992
-0.362655
-0.150799
0.0617632
0.27633
0.494036
0.71562
0.941286
1.17071
1.40318
1.63774
1.87338
2.10908
2.34374
2.57617
2.805
3.02879
3.24625
3.4564
3.65868
3.85293
4.03914
4.21718
4.38655
4.54624
4.69495
4.83134
4.95445
5.06392
5.15994
5.24298
5.31339
5.371
5.41498
5.4441
5.45722
5.45384
5.43442
5.40032
5.35335
5.29502
5.22587
5.14506
5.0505
4.93934
4.80878
4.65666
4.48192
-4.87347
-5.03364
-5.17989
-5.32017
-5.46267
-5.61382
-5.77648
-5.94904
-6.12556
-6.29694
-6.45289
-6.58407
-6.6838
-6.74889
-6.77947
-6.77789
-6.74714
-6.68948
-6.60584
-6.49602
-6.35954
-6.19652
-6.00833
-5.79765
-5.56803
-5.3232
-5.06641
-4.8002
-4.52656
-4.24742
-3.96484
-3.6811
-3.39833
-3.11806
-2.84101
-2.56701
-2.29535
-2.02523
-1.75624
-1.48854
-1.22281
-0.959797
-0.699852
-0.442547
-0.186579
0.0700258
0.329491
0.593761
0.864058
1.14065
1.42289
1.7095
1.99899
2.28996
2.58119
2.87146
3.1593
3.44281
3.71984
3.98837
4.24698
4.49513
4.73309
4.96148
5.18072
5.39034
5.58883
5.77385
5.943
6.09463
6.22835
6.34501
6.44609
6.53279
6.60514
6.66164
6.69971
6.71677
6.71153
6.68475
6.63917
6.5786
6.50642
6.42412
6.33044
6.22159
6.09243
5.93793
5.75434
5.53978
-5.8177
-5.99057
-6.14274
-6.28777
-6.44031
-6.6123
-6.80944
-7.02946
-7.26227
-7.49233
-7.70213
-7.87633
-8.00474
-8.08386
-8.11624
-8.10821
-8.06653
-7.99548
-7.89583
-7.76564
-7.60237
-7.40479
-7.17432
-6.91506
-6.63282
-6.33346
-6.02147
-5.69956
-5.36937
-5.03256
-4.69165
-4.35004
-4.01116
-3.67745
-3.34966
-3.02694
-2.70737
-2.38897
-2.07071
-1.75305
-1.43766
-1.12656
-0.820955
-0.520554
-0.223317
0.0741322
0.375696
0.684766
1.00339
1.33183
1.66872
2.01164
2.35806
2.70611
3.05463
3.40265
3.74863
4.08993
4.4231
4.74472
5.05257
5.34621
5.62694
5.89695
6.15801
6.41009
6.65071
6.8755
7.07977
7.26046
7.41721
7.55236
7.66974
7.77269
7.86194
7.93469
7.98538
8.00823
8.00005
7.96197
7.89943
7.82038
7.73222
7.63858
7.53747
7.42175
7.28184
7.10883
6.89643
6.64168
-6.80567
-6.97692
-7.11542
-7.24408
-7.38938
-7.5739
-7.80877
-8.09068
-8.40218
-8.71613
-9.00194
-9.23381
-9.39598
-9.48547
-9.51052
-9.48634
-9.4276
-9.34207
-9.2292
-9.08236
-8.89405
-8.65991
-8.38129
-8.0651
-7.72182
-7.36151
-6.99039
-6.61048
-6.22135
-5.82326
-5.41915
-5.01474
-4.6163
-4.22802
-3.85079
-3.48213
-3.11751
-2.7523
-2.38416
-2.01413
-1.64622
-1.28528
-0.934486
-0.59394
-0.260312
0.072344
0.411107
0.76201
1.12855
1.51081
1.9058
2.30863
2.71468
3.12147
3.52863
3.93663
4.3445
4.74858
5.14276
5.52067
5.87836
6.21558
6.53589
6.84493
7.14786
7.44592
7.73496
8.00619
8.24997
8.46023
8.63659
8.78468
8.91354
9.03165
9.14182
9.23877
9.31041
9.3436
9.33086
9.27362
9.18269
9.07446
8.96512
8.86301
8.76473
8.65597
8.51814
8.33569
8.09879
7.80349
-7.86303
-8.00976
-8.10156
-8.17567
-8.28114
-8.46208
-8.73931
-9.10815
-9.53732
-9.97916
-10.3781
-10.6904
-10.8906
-10.9786
-10.9745
-10.913
-10.826
-10.7269
-10.6103
-10.4577
-10.2506
-9.97804
-9.64134
-9.25317
-8.83442
-8.40421
-7.97111
-7.53389
-7.08543
-6.62187
-6.14639
-5.67017
-5.20615
-4.76207
-4.33904
-3.93099
-3.52801
-3.1194
-2.69994
-2.27177
-1.8444
-1.42913
-1.03301
-0.657168
-0.29576
0.0618747
0.429111
0.816775
1.23106
1.67142
2.13152
2.60083
3.07007
3.53606
4.00116
4.4705
4.94549
5.42113
5.88543
6.32528
6.73311
7.10876
7.46045
7.80107
8.14399
8.49396
8.84405
9.17551
9.46752
9.70779
9.89563
10.0436
10.1716
10.3009
10.4395
10.578
10.6895
10.7438
10.7243
10.6324
10.4894
10.3287
10.1862
10.0804
10.0056
9.9306
9.81728
9.63955
9.38389
9.04779
-9.03509
-9.12086
-9.11229
-9.06122
-9.06346
-9.2109
-9.53724
-10.038
-10.6534
-11.303
-11.8783
-12.3073
-12.546
-12.6034
-12.52
-12.3756
-12.2412
-12.1358
-12.0427
-11.9105
-11.7009
-11.3877
-10.9748
-10.4846
-9.9629
-9.45048
-8.95717
-8.47296
-7.97077
-7.43717
-6.87423
-6.30761
-5.76687
-5.26544
-4.80534
-4.37223
-3.94633
-3.50189
-3.02799
-2.52803
-2.02497
-1.5452
-1.10218
-0.699489
-0.325697
0.0376204
0.41771
0.8332
1.296
1.80354
2.34394
2.89307
3.43
3.95182
4.46743
4.99601
5.54531
6.10975
6.66304
7.17569
7.63386
8.03605
8.40051
8.75342
9.12942
9.54129
9.97934
10.401
10.7589
11.0301
11.2114
11.3303
11.4272
11.5557
11.7363
11.9554
12.1498
12.2492
12.2212
12.0636
11.8206
11.5556
11.3532
11.2523
11.2458
11.2593
11.2082
11.0547
10.7839
10.4081
-10.4039
-10.3671
-10.1835
-9.86937
-9.63617
-9.70187
-10.084
-10.8028
-11.7204
-12.7343
-13.5895
-14.1985
-14.4631
-14.4311
-14.1541
-13.8241
-13.6151
-13.5277
-13.5318
-13.4753
-13.301
-12.9416
-12.4202
-11.762
-11.0785
-10.4698
-9.93065
-9.43846
-8.90186
-8.29525
-7.60788
-6.90828
-6.27143
-5.70975
-5.23317
-4.80353
-4.39174
-3.92721
-3.39395
-2.7891
-2.17233
-1.60861
-1.11351
-0.700427
-0.340769
-0.0109992
0.355129
0.78132
1.29636
1.88823
2.5437
3.20284
3.8117
4.37657
4.91508
5.49179
6.12341
6.81452
7.49928
8.10471
8.6154
9.01786
9.35736
9.6727
10.0634
10.5511
11.1384
11.7186
12.1753
12.4823
12.617
12.649
12.6374
12.7357
12.9778
13.3686
13.7472
13.9381
13.9052
13.618
13.1837
12.6928
12.3746
12.2883
12.4578
12.6816
12.7469
12.639
12.3358
11.9338
-12.1246
-11.8242
-11.4421
-10.5606
-9.77775
-9.73613
-10.145
-11.2802
-12.6477
-14.3932
-15.654
-16.5845
-16.8061
-16.6109
-15.8634
-15.0973
-14.8129
-14.7871
-15.1071
-15.2089
-15.1668
-14.7281
-14.0618
-13.0753
-12.0858
-11.3882
-10.836
-10.4674
-9.93323
-9.26908
-8.35867
-7.41814
-6.66733
-6.03112
-5.59306
-5.20878
-4.91277
-4.45121
-3.86271
-3.06712
-2.24306
-1.57307
-1.00659
-0.624308
-0.312695
-0.111901
0.206104
0.601509
1.18606
1.88127
2.73812
3.58489
4.25662
4.83912
5.30755
5.90832
6.61563
7.52821
8.44949
9.16984
9.75242
10.09
10.3486
10.4831
10.8569
11.4171
12.3068
13.2135
13.8066
14.1818
14.1698
14.0295
13.6883
13.7078
14.004
14.7984
15.6138
15.9483
15.954
15.3833
14.6269
13.5802
13.0609
12.9546
13.5903
14.331
14.5336
14.5037
14.0289
13.7001
-14.5447
-13.3984
-13.4191
-11.1088
-8.85111
-9.12081
-9.15889
-11.422
-13.0295
-16.749
-18.1929
-19.9902
-19.7482
-19.5846
-17.5982
-15.6758
-15.6373
-15.5473
-16.9955
-17.149
-17.6027
-16.8414
-16.1635
-14.3922
-12.6718
-12.0965
-11.4762
-11.7339
-11.1512
-10.597
-9.15224
-7.65424
-6.89765
-6.06664
-5.87502
-5.48652
-5.67182
-5.15765
-4.6294
-3.38583
-2.09164
-1.38821
-0.634156
-0.446249
-0.12489
-0.38151
-0.0543298
0.149311
0.91637
1.64148
2.94699
4.21892
4.82994
5.46581
5.50925
6.17124
6.81201
8.22912
9.68875
10.4331
11.242
11.2753
11.518
10.9481
11.3817
11.8078
13.4498
15.1594
15.7506
16.4378
15.9065
15.6983
14.2188
14.2802
14.3118
16.1965
18.1717
18.4305
18.8316
17.4145
16.4868
13.7067
13.1511
12.5511
14.5704
16.7536
16.654
17.0077
15.5105
15.9054
-18.9029
-13.2908
-18.7515
-11.5799
-4.28409
-8.83819
-4.96814
-12.5071
-10.3693
-22.3811
-20.2222
-26.3318
-22.577
-25.1828
-19.2403
-13.541
-16.5353
-14.0923
-20.7479
-18.6566
-21.788
-18.8346
-19.8397
-15.6356
-11.6086
-12.8698
-10.8518
-14.2107
-12.3282
-13.2072
-10.0225
-6.82265
-7.23508
-5.18136
-6.4405
-4.93799
-7.43823
-5.88447
-6.4263
-3.77749
-1.08954
-1.27623
0.553583
-0.460368
0.89518
-1.49194
-0.137021
-1.11443
0.706902
0.565727
3.20412
5.80465
5.36746
6.94561
4.8201
6.46463
5.8903
8.86872
11.958
11.6033
13.8483
12.1589
13.8576
9.96762
11.9172
10.4471
14.4954
18.7152
17.5562
20.4482
17.1775
19.1974
12.5296
14.8948
11.9506
17.4636
23.2004
20.707
24.3269
18.7402
21.0136
10.6292
13.3045
8.37532
15.3136
22.4628
18.1208
22.1762
14.2672
19.6143
-32.4995
2.76299
-42.2731
-12.2289
17.348
-20.685
15.653
-27.5254
12.668
-48.4179
-10.3432
-46.8768
-16.245
-43.0893
-20.5309
1.1139
-25.2616
0.466066
-37.0951
-12.6421
-34.7348
-15.1264
-31.0166
-16.6232
-2.92931
-18.364
-2.48413
-24.2346
-9.52804
-21.6686
-10.9142
-0.788634
-11.1232
0.475047
-10.9823
1.37497
-15.0422
-3.59344
-12.8176
-4.22526
4.05246
-4.06771
5.8367
-3.88636
7.3049
-7.99096
3.13876
-6.40858
3.32327
-4.51287
3.51568
11.7647
3.00278
13.7586
-1.29823
9.95286
-0.147794
9.34837
19.1864
9.02987
22.1197
8.16325
24.2445
0.577394
17.376
1.13908
15.293
30.0158
13.5275
33.3318
10.8291
35.2055
-2.16864
23.1536
-2.59059
18.407
40.0791
14.1787
43.0781
8.74562
43.7659
-11.2557
24.4067
-12.8912
15.7515
44.7174
7.4939
44.5718
-6.0668
32.4779
29109.7
29058
29005.4
28952
28897.8
28842.9
28787.4
28731.3
28674.8
28617.8
28560.5
28502.9
28445.1
28387.1
28329
1.39624
1.31146
1.21969
1.1225
1.02161
0.918696
0.815262
0.712502
0.611265
0.512055
0.415066
0.32023
0.227269
0.135754
0.0451477
2.33595
2.19335
2.03869
1.87481
1.7048
1.53164
1.35793
1.18573
1.01645
0.850892
0.689332
0.531592
0.377151
0.225235
0.0748995
3.28996
3.08732
2.86695
2.63329
2.39115
2.14512
1.89907
1.65599
1.41785
1.18568
0.959724
0.739609
0.524473
0.313115
0.104107
4.26515
3.99903
3.70848
3.40022
3.08139
2.75858
2.43722
2.12127
1.8132
1.51416
1.2242
0.942584
0.66797
0.398614
0.132506
5.26998
4.93517
4.56773
4.17773
3.77561
3.37061
2.96997
2.57865
2.19948
1.83347
1.48025
1.13848
0.806151
0.480826
0.159794
6.3151
5.90375
5.44936
4.96722
4.47258
3.97823
3.4934
3.02391
2.57259
2.13993
1.72476
1.32485
0.937263
0.558699
0.185621
7.41466
6.9148
6.35823
5.76879
5.16893
4.57604
4.00136
3.45099
2.92706
2.42888
1.95398
1.49881
1.05929
0.63104
0.209591
8.58884
7.9816
7.29914
6.58005
5.85768
5.15503
4.48461
3.85146
3.25572
2.69453
2.1634
1.65706
1.16997
0.696541
0.231276
9.86888
9.12298
8.27608
7.39404
6.52623
5.70107
4.92995
4.21413
3.54964
2.93004
2.34799
1.79602
1.26692
0.753839
0.250235
11.307
10.3657
9.28832
8.19389
7.15239
6.19288
5.31952
4.52507
3.79842
3.12787
2.5024
1.91202
1.34779
0.80162
0.266044
13.0017
11.7437
10.3169
8.93998
7.69651
6.59848
5.62989
4.7679
3.99087
3.28047
2.6216
2.00178
1.41052
0.838763
0.278346
15.1909
13.2893
11.2948
9.55152
8.09447
6.87416
5.83327
4.92545
4.11648
3.3814
2.70162
2.06287
1.45369
0.864507
0.286905
18.5022
14.9273
12.0209
9.87656
8.25535
6.96993
5.90308
4.98379
4.16798
3.42686
2.7405
2.09427
1.47677
0.878618
0.291653
24.1737
15.8964
11.9839
9.67792
8.08022
6.84668
5.82483
4.93832
4.14458
3.41742
2.73913
2.09682
1.48039
0.88148
0.292719
-0.307828
-0.926701
-1.55537
-2.20085
-2.87099
-3.57498
-4.32414
-5.13329
-6.02317
-7.02534
-8.19246
-9.622
-11.5159
-14.3422
-19.2713
-0.306215
-0.921493
-1.5454
-2.18399
-2.8438
-3.53206
-4.257
-5.02821
-5.85705
-6.75685
-7.74154
-8.81556
-9.9244
-10.7238
-9.50973
-0.30261
-0.910246
-1.52517
-2.15232
-2.79675
-3.46355
-4.15757
-4.88289
-5.6413
-6.42902
-7.22822
-7.98466
-8.54717
-8.50328
-6.76652
-0.297309
-0.893897
-1.49637
-2.10857
-2.73409
-3.37601
-4.03626
-4.71434
-5.40491
-6.09293
-6.7443
-7.288
-7.5904
-7.45814
-6.86867
-0.290624
-0.873412
-1.46076
-2.05548
-2.65994
-3.27564
-3.90238
-4.53686
-5.16996
-5.78209
-6.335
-6.75837
-6.93523
-6.72996
-6.27819
-0.282853
-0.849714
-1.41996
-1.99556
-2.57792
-3.16748
-3.76297
-4.36006
-4.94923
-5.51214
-6.01557
-6.39922
-6.54528
-6.17251
-4.27065
-0.274263
-0.823619
-1.37538
-1.93085
-2.49081
-3.05514
-3.62231
-4.18851
-4.74635
-5.28325
-5.77932
-6.20445
-6.51542
-6.67656
-6.87358
-0.265081
-0.795808
-1.32816
-1.86295
-2.40057
-2.94074
-3.48223
-4.02253
-4.55764
-5.08239
-5.59226
-6.08846
-6.5893
-7.15532
-7.88511
-0.255488
-0.766823
-1.27917
-1.79301
-2.30848
-2.82534
-3.34287
-3.85997
-4.37582
-4.89152
-5.41454
-5.96886
-6.61759
-7.51997
-9.08009
-0.245631
-0.737088
-1.22908
-1.72183
-2.21534
-2.7094
-3.2037
-3.69816
-4.19386
-4.69525
-5.2149
-5.78337
-6.46941
-7.42746
-9.03521
-0.235624
-0.706936
-1.17841
-1.65004
-2.12171
-2.5932
-3.06433
-3.53534
-4.00775
-4.48605
-4.98114
-5.51593
-6.13201
-6.8834
-7.72123
-0.22556
-0.676636
-1.12755
-1.57814
-2.02811
-2.47715
-2.92493
-3.37144
-3.81736
-4.26498
-4.7196
-5.19179
-5.70037
-6.27898
-7.01314
-0.215515
-0.64641
-1.07688
-1.50658
-1.93508
-2.36186
-2.78632
-3.20782
-3.62564
-4.03885
-4.44568
-4.84214
-5.21985
-5.56624
-5.85552
-0.205552
-0.616447
-1.02669
-1.43579
-1.84316
-2.24808
-2.64965
-3.04662
-3.43697
-3.81697
-4.17879
-4.50527
-4.76087
-4.89293
-4.98115
-0.195727
-0.586907
-0.977252
-1.36614
-1.75286
-2.13655
-2.51609
-2.88988
-3.25534
-3.60757
-3.9363
-4.21743
-4.38751
-4.24986
-3.03606
-0.186082
-0.557923
-0.928781
-1.29794
-1.6646
-2.02782
-2.38642
-2.73883
-3.08275
-3.41435
-3.72675
-4.00652
-4.22769
-4.35395
-4.46468
-0.176653
-0.5296
-0.881451
-1.23143
-1.57867
-1.92222
-2.26095
-2.59358
-2.91857
-3.23433
-3.53973
-3.83613
-4.13363
-4.46869
-4.93165
-0.167468
-0.502016
-0.835389
-1.16676
-1.49525
-1.8199
-2.13967
-2.45353
-2.7607
-3.06138
-3.35885
-3.66485
-4.01335
-4.49445
-5.33015
-0.158544
-0.475228
-0.790685
-1.10406
-1.41445
-1.7209
-2.02241
-2.31805
-2.60723
-2.89056
-3.17195
-3.46393
-3.80088
-4.27383
-5.13431
-0.149896
-0.449274
-0.747396
-1.04339
-1.33635
-1.62529
-1.90918
-2.18697
-2.45773
-2.72099
-2.97762
-3.23167
-3.49384
-3.78397
-4.08938
-0.141531
-0.424176
-0.705558
-0.984804
-1.26099
-1.53313
-1.80013
-2.06072
-2.31337
-2.55595
-2.78501
-2.99368
-3.16732
-3.2834
-3.40084
-0.133452
-0.399941
-0.66518
-0.928307
-1.18841
-1.44451
-1.69548
-1.93993
-2.17592
-2.40023
-2.60649
-2.77993
-2.88069
-2.78183
-1.98189
-0.125656
-0.376563
-0.62625
-0.87388
-1.11858
-1.35941
-1.59532
-1.82497
-2.04653
-2.25699
-2.45073
-2.61657
-2.73265
-2.76706
-2.76001
-0.118138
-0.354022
-0.58873
-0.821465
-1.05141
-1.27771
-1.49945
-1.71559
-1.92481
-2.1253
-2.31431
-2.48771
-2.6413
-2.78104
-2.96471
-0.110887
-0.332288
-0.552565
-0.770968
-0.986745
-1.19915
-1.40745
-1.61097
-1.80911
-2.00156
-2.18868
-2.37258
-2.55952
-2.76448
-3.01276
-0.103895
-0.311327
-0.517689
-0.722277
-0.924402
-1.12341
-1.31875
-1.51005
-1.69732
-1.88148
-2.06528
-2.25531
-2.4652
-2.71781
-3.0292
-0.0971473
-0.291101
-0.484035
-0.675282
-0.864202
-1.05021
-1.23285
-1.4119
-1.58768
-1.76162
-1.93752
-2.12423
-2.3412
-2.63033
-3.08067
-0.090635
-0.271578
-0.451544
-0.629892
-0.80601
-0.979335
-1.14941
-1.316
-1.47929
-1.64037
-1.80224
-1.97211
-2.1671
-2.43088
-2.8941
-0.0843482
-0.25273
-0.420168
-0.586041
-0.749745
-0.910702
-1.06839
-1.22238
-1.37243
-1.51857
-1.66141
-1.80254
-1.94521
-2.09295
-2.21933
-0.078279
-0.234532
-0.389872
-0.54369
-0.695379
-0.84433
-0.989923
-1.1315
-1.26826
-1.39905
-1.52176
-1.6319
-1.71981
-1.76988
-1.8073
-0.0724204
-0.216967
-0.360629
-0.502811
-0.642906
-0.780281
-0.914241
-1.04395
-1.16823
-1.28514
-1.39084
-1.47671
-1.52069
-1.45559
-1.02401
-0.0667656
-0.200014
-0.332409
-0.463376
-0.592317
-0.718599
-0.841507
-0.96016
-1.07332
-1.17902
-1.27369
-1.35062
-1.39733
-1.39583
-1.36325
-0.061307
-0.183651
-0.305181
-0.425344
-0.543571
-0.659255
-0.771724
-0.880184
-0.983607
-1.08055
-1.16887
-1.24554
-1.30745
-1.35767
-1.43087
-0.0560358
-0.167852
-0.278899
-0.388656
-0.496589
-0.602142
-0.704726
-0.803705
-0.898392
-0.988073
-1.07216
-1.15071
-1.22572
-1.30358
-1.39422
-0.0509419
-0.152586
-0.253512
-0.353233
-0.451258
-0.54709
-0.64023
-0.730211
-0.81666
-0.899488
-0.97931
-1.05834
-1.14202
-1.24065
-1.36583
-0.0460141
-0.13782
-0.22896
-0.318986
-0.40745
-0.493906
-0.577931
-0.659172
-0.737448
-0.813001
-0.887019
-0.962773
-1.04796
-1.15932
-1.33026
-0.0412404
-0.123517
-0.205182
-0.285825
-0.365036
-0.44241
-0.517568
-0.590195
-0.660136
-0.72759
-0.793534
-0.860668
-0.935761
-1.03663
-1.21958
-0.0366083
-0.10964
-0.182115
-0.253659
-0.323898
-0.392456
-0.458965
-0.52309
-0.58456
-0.643239
-0.699234
-0.753054
-0.805682
-0.856963
-0.888418
-0.0321048
-0.0961486
-0.159693
-0.222401
-0.283929
-0.343924
-0.402021
-0.457832
-0.510929
-0.560762
-0.606457
-0.646285
-0.676559
-0.691093
-0.698507
-0.0277168
-0.0830046
-0.137853
-0.191963
-0.245026
-0.296713
-0.346665
-0.394466
-0.439573
-0.481168
-0.517762
-0.546168
-0.558383
-0.530192
-0.369379
-0.0234302
-0.0701661
-0.116527
-0.162254
-0.207079
-0.250707
-0.292807
-0.332974
-0.370664
-0.405055
-0.434763
-0.45731
-0.468282
-0.461404
-0.441618
-0.0192301
-0.0575886
-0.0956401
-0.133173
-0.169963
-0.205764
-0.240293
-0.273207
-0.304054
-0.332201
-0.356745
-0.376502
-0.390589
-0.401597
-0.429071
-0.0151007
-0.0452247
-0.0751144
-0.104608
-0.133534
-0.161703
-0.188903
-0.21488
-0.239323
-0.261855
-0.282055
-0.299642
-0.315045
-0.330369
-0.347131
-0.0110253
-0.0330236
-0.0548641
-0.0764378
-0.09763
-0.118317
-0.138363
-0.157619
-0.175924
-0.193133
-0.209184
-0.224308
-0.239565
-0.258153
-0.290277
-0.00698616
-0.0209322
-0.0347991
-0.0485326
-0.062077
-0.0753753
-0.0883716
-0.101018
-0.11329
-0.12522
-0.136959
-0.148888
-0.161777
-0.176546
-0.190208
-0.00296524
-0.00889574
-0.0148265
-0.0207583
-0.0266943
-0.0326424
-0.0386221
-0.0446767
-0.0508945
-0.0574415
-0.0646005
-0.0728047
-0.0826869
-0.0957131
-0.12092
0.00105579
0.00314118
0.00514744
0.00701955
0.00869797
0.010114
0.0111811
0.0117793
0.0117305
0.0107629
0.00848514
0.00444374
-0.00141282
-0.00642231
0.00580828
0.00509516
0.0152336
0.0252153
0.0349332
0.0442741
0.0531149
0.0613124
0.0686875
0.0749959
0.0798799
0.0827998
0.082955
0.0792767
0.0708994
0.0599992
0.00917083
0.0274354
0.0454677
0.0631102
0.0802
0.0965653
0.112018
0.12634
0.139254
0.150366
0.159041
0.164134
0.163236
0.149979
0.100858
0.0133004
0.0397993
0.0659924
0.0916732
0.116632
0.140653
0.163514
0.184976
0.204771
0.22255
0.237779
0.24948
0.255789
0.253975
0.247691
0.0175009
0.0523768
0.0868746
0.12074
0.153718
0.185551
0.215985
0.244777
0.271694
0.296515
0.318979
0.338584
0.353995
0.361089
0.344182
0.0217892
0.0652182
0.108198
0.150427
0.191603
0.231425
0.269605
0.305886
0.340081
0.372129
0.402176
0.430617
0.457993
0.48489
0.516975
0.0261819
0.078373
0.130045
0.180849
0.230432
0.278445
0.32455
0.368453
0.40997
0.449147
0.486503
0.523407
0.562347
0.605112
0.636024
0.030695
0.0918898
0.152497
0.212121
0.270357
0.326795
0.38103
0.432689
0.481496
0.527443
0.571163
0.614803
0.664069
0.733595
0.865866
0.0353441
0.105816
0.175636
0.244361
0.311535
0.376682
0.439309
0.498914
0.555022
0.607302
0.655897
0.702317
0.751749
0.818542
0.936332
0.040144
0.120196
0.199538
0.277683
0.354124
0.428324
0.499695
0.567579
0.631221
0.689737
0.742161
0.787763
0.827403
0.86811
0.935237
0.0451081
0.135072
0.224274
0.312191
0.398276
0.481937
0.56251
0.639203
0.710994
0.77642
0.833182
0.877377
0.902346
0.899368
0.883237
0.050248
0.150478
0.249904
0.347976
0.444116
0.537701
0.628028
0.714243
0.795201
0.86914
0.932951
0.980369
0.996728
0.939794
0.650285
0.0555735
0.166443
0.276477
0.385105
0.491734
0.595733
0.696408
0.792946
0.884298
0.96891
1.04413
1.10496
1.14203
1.14176
1.11948
0.0610919
0.18299
0.30403
0.423626
0.541183
0.656079
0.767669
0.875262
0.978092
1.07522
1.16531
1.24607
1.31331
1.35906
1.36221
0.0668089
0.200135
0.332585
0.463566
0.592481
0.718726
0.841711
0.960894
1.07586
1.18645
1.29299
1.39661
1.49954
1.60597
1.73326
0.0727287
0.21789
0.362161
0.504944
0.645635
0.783639
0.918398
1.04947
1.17668
1.3005
1.42272
1.54764
1.68337
1.83844
1.98332
0.0788541
0.236263
0.392772
0.547774
0.700656
0.850808
0.997652
1.14072
1.27986
1.41568
1.55059
1.69121
1.8538
2.07802
2.47192
0.0851873
0.255261
0.424428
0.592075
0.757572
0.920274
1.07953
1.23471
1.38536
1.53149
1.67451
1.81955
1.98146
2.19982
2.57331
0.0917293
0.274887
0.457139
0.637867
0.816427
0.992132
1.16423
1.33186
1.494
1.64948
1.79705
1.93618
2.06994
2.21394
2.41416
0.0984797
0.295142
0.490907
0.685161
0.877259
1.06649
1.25203
1.43281
1.60728
1.77296
1.92546
2.05658
2.15132
2.18906
2.20664
0.105436
0.316016
0.525719
0.733947
0.940073
1.14341
1.34313
1.53813
1.72666
1.9056
2.06871
2.20224
2.27229
2.1782
1.53569
0.112593
0.337496
0.561551
0.784185
1.00482
1.22282
1.4375
1.64793
1.85269
2.04923
2.23249
2.392
2.50727
2.54818
2.55148
0.119945
0.359562
0.598361
0.835804
1.07137
1.30454
1.53481
1.76166
1.98442
2.20208
2.41274
2.61249
2.79388
2.9443
3.03581
0.127486
0.382191
0.636103
0.888716
1.13956
1.38825
1.63448
1.8782
2.11966
2.35978
2.60054
2.84573
3.10197
3.38132
3.72261
0.135209
0.405363
0.674736
0.942839
1.20924
1.47363
1.73588
1.99627
2.25582
2.51701
2.78525
3.07126
3.39402
3.7753
4.16851
0.143112
0.42907
0.714237
0.998124
1.2803
1.56047
1.83855
2.1149
2.39079
2.66932
2.95757
3.27124
3.64539
4.16097
5.02888
0.151197
0.453315
0.754613
1.05457
1.35273
1.64872
1.94237
2.23381
2.52389
2.81485
3.11218
3.42918
3.7985
4.30193
5.14559
0.15947
0.478119
0.795899
1.11225
1.42663
1.73857
2.04767
2.35363
2.65633
2.95589
3.25308
3.55072
3.85844
4.20655
4.6639
0.167941
0.503514
0.838158
1.17126
1.50219
1.83035
2.1551
2.47566
2.79088
3.0985
3.39361
3.6652
3.89025
4.03526
4.17451
0.176622
0.529539
0.881467
1.23173
1.57964
1.92446
2.26537
2.60134
2.93063
3.24973
3.5504
3.8119
3.97755
3.86789
2.77685
0.185526
0.556234
0.925903
1.29381
1.65918
2.02121
2.37902
2.73157
3.07738
3.41366
3.73428
4.02508
4.25594
4.38193
4.47819
0.194661
0.583633
0.971534
1.3576
1.74099
2.12084
2.49625
2.86641
3.23064
3.58837
3.93876
4.27976
4.60704
4.9165
5.20621
0.204033
0.611754
1.01841
1.42319
1.82521
2.22347
2.61704
3.00526
3.3883
3.76805
4.14965
4.54382
4.97037
5.46464
6.10634
0.213638
0.640593
1.06654
1.49066
1.91196
2.32929
2.74146
3.14761
3.54812
3.9463
4.35165
4.78523
5.28651
5.91019
6.63743
0.223459
0.670108
1.11589
1.56002
2.0014
2.43862
2.86994
3.29375
3.70942
4.11943
4.53389
4.97944
5.51745
6.2836
7.59649
0.233455
0.700198
1.16635
1.63122
2.09366
2.55193
3.00354
3.44543
3.87449
4.28931
4.69435
5.10925
5.58974
6.27706
7.53426
0.243557
0.730666
1.21765
1.70404
2.18875
2.66976
3.14378
3.60588
4.04928
4.46581
4.84778
5.1933
5.51814
5.87448
6.32562
0.253651
0.76119
1.26931
1.77795
2.2863
2.79234
3.29218
3.77916
4.24256
4.66612
5.0263
5.29146
5.4244
5.40579
5.41398
0.263569
0.791275
1.32055
1.85199
2.38537
2.91912
3.44939
3.96865
4.46335
4.91023
5.27061
5.48118
5.43563
4.91821
3.22559
0.273081
0.820232
1.37024
1.92459
2.48409
3.0482
3.61412
4.17505
4.71714
5.21419
5.61871
5.84847
5.77427
5.24646
4.34156
0.281894
0.847169
1.41683
1.99355
2.5795
3.1759
3.78217
4.39435
5.002
5.58218
6.0879
6.42653
6.42759
5.83625
4.57769
0.289661
0.871017
1.45847
2.05602
2.66756
3.29663
3.94599
4.61664
5.3057
6.00163
6.67284
7.23868
7.49195
6.88902
4.01633
0.296002
0.890593
1.49301
2.10868
2.74333
3.40314
4.09488
4.82597
5.60441
6.43797
7.33065
8.26751
9.15053
9.51752
7.25073
0.300529
0.904689
1.51829
2.14807
2.80152
3.48738
4.21633
5.00228
5.86461
6.83291
7.95733
9.33334
11.1673
13.9743
19.1936
18.5883
13.3475
10.6363
8.90371
7.61198
6.55387
5.63788
4.81768
4.06658
3.36727
2.70733
2.07715
1.46882
0.875461
0.290861
6.24848
8.75966
8.58615
7.84083
6.9997
6.17533
5.39271
4.65406
3.95542
3.29114
2.65535
2.04235
1.44668
0.863198
0.286935
2.71345
6.03567
6.93273
6.84411
6.37547
5.7675
5.11673
4.46247
3.82022
3.1951
2.58745
1.99541
1.41602
0.845877
0.281334
2.51009
4.9954
5.96346
6.11095
5.84771
5.38909
4.84294
4.26233
3.67298
3.0868
2.50862
1.93959
1.37888
0.824624
0.274417
4.0668
5.00845
5.56372
5.66269
5.45533
5.07118
4.59282
4.06807
3.52338
2.97281
2.42333
1.87791
1.33719
0.800522
0.266531
4.80947
5.28947
5.48051
5.42683
5.18545
4.81843
4.37468
3.88747
3.37773
2.85794
2.33513
1.81287
1.29262
0.774523
0.257988
6.09018
5.77082
5.56692
5.32101
5.00255
4.61873
4.18651
3.72233
3.2389
2.74506
2.24645
1.74637
1.24649
0.747403
0.249042
6.74084
6.17162
5.68216
5.26526
4.8648
4.45239
4.02034
3.57038
3.10716
2.63537
2.15869
1.67964
1.19974
0.719746
0.239889
7.83864
6.51668
5.74667
5.1978
4.7351
4.29948
3.86641
3.42747
2.98124
2.52897
2.07249
1.61344
1.15301
0.691957
0.23067
7.84503
6.47809
5.6573
5.07025
4.58636
4.14457
3.71637
3.28945
2.8594
2.42538
1.98797
1.54811
1.10666
0.664297
0.221478
6.80015
6.0599
5.40531
4.87081
4.40817
3.98004
3.56528
3.15347
2.74019
2.32405
1.90508
1.48381
1.0609
0.636923
0.212369
6.23303
5.58194
5.06968
4.62123
4.20582
3.80604
3.41198
3.01838
2.62284
2.2246
1.8237
1.42059
1.01582
0.609922
0.203377
5.29412
5.00733
4.68951
4.34853
3.99242
3.6279
3.2582
2.8845
2.50728
2.12689
1.74379
1.35848
0.971489
0.583344
0.194522
4.54642
4.45407
4.32525
4.08615
3.78472
3.45323
3.10707
2.75296
2.39381
2.03099
1.66534
1.29747
0.927921
0.55721
0.185812
2.81643
3.92597
4.0374
3.86691
3.59775
3.2886
2.96135
2.62482
2.28279
1.93699
1.58836
1.23757
0.885126