/*--------------------------------*- C++ -*----------------------------------*\
| =========                 |                                                 |
| \\      /  F ield         | OpenFOAM: The Open Source CFD Toolbox           |
|  \\    /   O peration     | Version:  5.x                                   |
|   \\  /    A nd           | Web:      www.OpenFOAM.org                      |
|    \\/     M anipulation  |                                                 |
\*---------------------------------------------------------------------------*/
FoamFile
{
    version     2.0;
    format      ascii;
    class       volScalarField;
    location    "1";
    object      T;
}
// * * * * * * * * * * * * * * * * * * * * * * * * * * * * * * * * * * * * * //

dimensions      [0 0 0 1 0 0 0];

internalField   nonuniform List<scalar> 
6300
(
322.715
322.146
321.578
321.012
320.447
319.885
319.327
318.772
318.222
317.677
317.138
316.605
316.079
315.56
315.05
322.715
322.145
321.577
321.01
320.444
319.882
319.323
318.767
318.217
317.671
317.131
316.598
316.071
315.553
315.042
322.714
322.144
321.574
321.005
320.439
319.875
319.315
318.759
318.207
317.66
317.119
316.584
316.057
315.537
315.025
322.714
322.141
321.57
320.999
320.431
319.866
319.304
318.745
318.191
317.643
317.1
316.564
316.035
315.513
315
322.712
322.138
321.564
320.991
320.421
319.853
319.288
318.727
318.171
317.62
317.075
316.536
316.005
315.481
314.966
322.711
322.133
321.557
320.981
320.408
319.837
319.269
318.705
318.146
317.591
317.043
316.502
315.968
315.441
314.924
322.709
322.128
321.548
320.969
320.392
319.818
319.246
318.678
318.115
317.557
317.005
316.46
315.922
315.393
314.873
322.707
322.123
321.538
320.955
320.374
319.796
319.22
318.647
318.08
317.517
316.96
316.41
315.868
315.336
314.812
322.705
322.116
321.527
320.94
320.354
319.77
319.19
318.612
318.039
317.471
316.908
316.353
315.806
315.269
314.742
322.703
322.109
321.515
320.923
320.332
319.743
319.156
318.573
317.993
317.419
316.85
316.288
315.734
315.191
314.66
322.7
322.101
321.502
320.904
320.308
319.713
319.12
318.53
317.943
317.361
316.784
316.214
315.652
315.102
314.566
322.697
322.093
321.488
320.884
320.282
319.68
319.081
318.483
317.889
317.298
316.711
316.131
315.56
315
314.456
322.695
322.084
321.473
320.864
320.254
319.646
319.04
318.434
317.831
317.23
316.633
316.04
315.455
314.882
314.327
322.692
322.075
321.458
320.842
320.226
319.611
318.997
318.383
317.771
317.159
316.55
315.942
315.339
314.744
314.17
322.689
322.066
321.443
320.82
320.198
319.575
318.953
318.331
317.709
317.087
316.464
315.84
315.214
314.586
313.967
314.59
314.177
313.772
313.372
312.98
312.594
312.216
311.845
311.482
311.127
310.779
310.44
310.109
309.786
309.471
309.165
308.868
308.579
308.298
308.025
307.761
307.504
307.255
307.014
306.78
306.553
306.333
306.119
305.911
305.709
305.512
305.32
305.133
304.951
304.772
304.597
304.426
304.257
304.091
303.927
303.765
303.605
303.446
303.288
303.13
302.973
302.816
302.658
302.499
302.339
302.178
302.015
301.849
301.681
301.51
301.336
301.158
300.976
300.79
300.599
300.403
300.201
299.994
299.781
299.562
299.336
299.103
298.863
298.616
298.362
298.099
297.829
297.551
297.265
296.97
296.667
296.356
296.036
295.708
295.372
295.027
294.673
294.312
293.942
293.564
293.178
292.784
292.383
291.974
291.558
314.581
314.168
313.762
313.363
312.97
312.584
312.206
311.835
311.471
311.115
310.768
310.428
310.097
309.774
309.459
309.153
308.856
308.567
308.286
308.014
307.75
307.493
307.245
307.004
306.77
306.543
306.323
306.11
305.903
305.701
305.505
305.314
305.127
304.945
304.767
304.593
304.421
304.253
304.088
303.924
303.763
303.603
303.445
303.287
303.13
302.973
302.816
302.659
302.501
302.341
302.181
302.018
301.853
301.685
301.515
301.341
301.164
300.982
300.797
300.606
300.41
300.209
300.003
299.79
299.571
299.345
299.113
298.874
298.627
298.372
298.11
297.84
297.563
297.276
296.982
296.679
296.368
296.048
295.72
295.384
295.039
294.685
294.323
293.953
293.575
293.189
292.795
292.393
291.984
291.568
314.564
314.15
313.744
313.343
312.95
312.564
312.185
311.813
311.449
311.093
310.745
310.405
310.073
309.75
309.435
309.129
308.832
308.543
308.263
307.991
307.727
307.471
307.223
306.983
306.75
306.524
306.305
306.093
305.886
305.686
305.49
305.3
305.115
304.934
304.757
304.583
304.413
304.246
304.081
303.919
303.759
303.6
303.442
303.286
303.129
302.974
302.818
302.661
302.504
302.346
302.186
302.024
301.86
301.694
301.524
301.352
301.175
300.995
300.81
300.62
300.426
300.226
300.02
299.808
299.59
299.365
299.133
298.894
298.648
298.394
298.133
297.863
297.586
297.3
297.006
296.703
296.392
296.072
295.744
295.408
295.062
294.709
294.347
293.976
293.598
293.211
292.817
292.414
292.004
291.587
314.537
314.123
313.716
313.314
312.92
312.533
312.153
311.781
311.416
311.059
310.71
310.37
310.038
309.714
309.399
309.093
308.796
308.507
308.227
307.956
307.693
307.438
307.191
306.952
306.72
306.496
306.278
306.067
305.862
305.663
305.469
305.28
305.096
304.917
304.741
304.569
304.4
304.235
304.072
303.911
303.752
303.595
303.438
303.283
303.128
302.974
302.819
302.665
302.509
302.352
302.194
302.034
301.871
301.706
301.538
301.367
301.192
301.013
300.83
300.642
300.449
300.25
300.045
299.835
299.618
299.394
299.163
298.925
298.68
298.427
298.166
297.897
297.62
297.335
297.041
296.739
296.428
296.109
295.78
295.444
295.098
294.744
294.382
294.011
293.632
293.244
292.849
292.446
292.035
291.617
314.502
314.087
313.678
313.276
312.881
312.492
312.111
311.738
311.372
311.014
310.664
310.322
309.99
309.666
309.351
309.045
308.748
308.46
308.18
307.909
307.647
307.394
307.148
306.91
306.68
306.457
306.241
306.032
305.829
305.632
305.44
305.253
305.071
304.894
304.72
304.55
304.384
304.22
304.059
303.9
303.743
303.588
303.433
303.28
303.127
302.975
302.822
302.669
302.515
302.36
302.204
302.046
301.886
301.723
301.557
301.388
301.215
301.038
300.857
300.671
300.479
300.282
300.079
299.87
299.655
299.433
299.203
298.967
298.723
298.471
298.211
297.943
297.667
297.382
297.089
296.787
296.476
296.157
295.829
295.492
295.146
294.792
294.429
294.057
293.677
293.289
292.893
292.488
292.076
291.656
314.458
314.041
313.631
313.227
312.831
312.441
312.059
311.683
311.316
310.956
310.605
310.263
309.929
309.605
309.29
308.984
308.687
308.399
308.12
307.851
307.59
307.338
307.094
306.858
306.63
306.409
306.195
305.989
305.788
305.593
305.404
305.22
305.041
304.866
304.694
304.527
304.363
304.202
304.043
303.886
303.732
303.579
303.427
303.276
303.125
302.975
302.825
302.674
302.523
302.371
302.217
302.062
301.904
301.744
301.581
301.414
301.244
301.07
300.891
300.707
300.518
300.323
300.122
299.915
299.702
299.482
299.254
299.019
298.777
298.526
298.267
298
297.725
297.441
297.149
296.847
296.537
296.218
295.889
295.552
295.206
294.851
294.488
294.115
293.735
293.345
292.948
292.542
292.128
291.706
314.405
313.986
313.574
313.169
312.771
312.38
311.996
311.619
311.249
310.888
310.535
310.191
309.856
309.531
309.215
308.909
308.613
308.326
308.048
307.78
307.52
307.27
307.028
306.794
306.569
306.351
306.14
305.936
305.738
305.547
305.361
305.18
305.003
304.832
304.664
304.499
304.338
304.18
304.024
303.87
303.719
303.568
303.419
303.271
303.123
302.976
302.829
302.681
302.532
302.383
302.233
302.08
301.926
301.769
301.609
301.445
301.278
301.107
300.931
300.75
300.564
300.372
300.174
299.97
299.759
299.541
299.315
299.082
298.842
298.593
298.336
298.07
297.796
297.513
297.221
296.92
296.61
296.291
295.963
295.625
295.279
294.923
294.559
294.186
293.804
293.414
293.015
292.607
292.191
291.767
314.342
313.921
313.508
313.102
312.702
312.309
311.922
311.543
311.171
310.807
310.451
310.105
309.769
309.443
309.127
308.821
308.525
308.239
307.963
307.695
307.438
307.189
306.95
306.72
306.497
306.282
306.075
305.875
305.681
305.493
305.31
305.133
304.96
304.792
304.627
304.467
304.309
304.154
304.001
303.851
303.703
303.556
303.41
303.265
303.121
302.977
302.833
302.688
302.543
302.397
302.25
302.102
301.951
301.798
301.642
301.482
301.319
301.151
300.979
300.802
300.619
300.43
300.235
300.033
299.825
299.61
299.387
299.157
298.918
298.671
298.416
298.152
297.879
297.597
297.306
297.006
296.697
296.378
296.049
295.712
295.364
295.008
294.642
294.268
293.885
293.494
293.094
292.684
292.266
291.839
314.269
313.847
313.432
313.025
312.623
312.228
311.839
311.457
311.081
310.713
310.355
310.006
309.668
309.341
309.025
308.719
308.424
308.139
307.863
307.598
307.342
307.096
306.86
306.633
306.414
306.204
306
305.804
305.614
305.43
305.252
305.079
304.911
304.747
304.586
304.429
304.275
304.124
303.976
303.83
303.686
303.543
303.401
303.259
303.118
302.977
302.837
302.696
302.555
302.413
302.271
302.126
301.98
301.831
301.679
301.524
301.365
301.202
301.034
300.861
300.682
300.496
300.305
300.107
299.902
299.689
299.47
299.242
299.007
298.762
298.508
298.246
297.974
297.693
297.404
297.105
296.796
296.478
296.15
295.811
295.462
295.105
294.738
294.363
293.979
293.587
293.185
292.774
292.353
291.923
314.185
313.761
313.346
312.938
312.536
312.14
311.748
311.361
310.98
310.607
310.244
309.891
309.551
309.224
308.908
308.603
308.309
308.025
307.75
307.486
307.233
306.99
306.757
306.534
306.32
306.114
305.916
305.724
305.539
305.36
305.187
305.02
304.856
304.697
304.541
304.388
304.238
304.091
303.947
303.806
303.666
303.528
303.39
303.252
303.115
302.978
302.841
302.704
302.568
302.431
302.293
302.154
302.013
301.869
301.722
301.572
301.418
301.26
301.097
300.928
300.753
300.572
300.384
300.189
299.988
299.78
299.564
299.34
299.108
298.865
298.614
298.352
298.082
297.803
297.515
297.217
296.91
296.593
296.264
295.924
295.574
295.214
294.846
294.47
294.086
293.693
293.29
292.877
292.454
292.02
314.088
313.664
313.25
312.843
312.442
312.044
311.649
311.256
310.868
310.487
310.117
309.76
309.417
309.089
308.775
308.472
308.179
307.896
307.623
307.36
307.108
306.869
306.641
306.423
306.215
306.015
305.821
305.634
305.455
305.282
305.115
304.953
304.796
304.642
304.49
304.342
304.197
304.054
303.916
303.779
303.645
303.512
303.379
303.245
303.112
302.978
302.845
302.713
302.581
302.449
302.318
302.184
302.049
301.91
301.769
301.624
301.476
301.324
301.167
301.004
300.834
300.657
300.473
300.282
300.084
299.88
299.669
299.45
299.222
298.983
298.733
298.472
298.202
297.924
297.638
297.344
297.039
296.723
296.394
296.052
295.699
295.336
294.965
294.588
294.204
293.812
293.409
292.995
292.569
292.131
313.977
313.554
313.142
312.741
312.344
311.946
311.546
311.145
310.746
310.352
309.972
309.608
309.262
308.935
308.625
308.327
308.037
307.754
307.48
307.217
306.967
306.731
306.509
306.299
306.099
305.905
305.717
305.535
305.361
305.194
305.035
304.881
304.731
304.583
304.436
304.292
304.15
304.013
303.88
303.75
303.623
303.495
303.368
303.238
303.108
302.978
302.848
302.72
302.594
302.469
302.344
302.218
302.089
301.956
301.82
301.681
301.54
301.396
301.247
301.09
300.926
300.752
300.571
300.383
300.189
299.991
299.787
299.575
299.351
299.115
298.866
298.605
298.335
298.057
297.774
297.485
297.185
296.871
296.542
296.197
295.838
295.468
295.094
294.716
294.335
293.946
293.545
293.13
292.701
292.259
313.846
313.428
313.021
312.632
312.247
311.85
311.446
311.03
310.615
310.199
309.804
309.428
309.081
308.757
308.457
308.17
307.883
307.6
307.32
307.056
306.805
306.574
306.359
306.162
305.973
305.787
305.604
305.425
305.256
305.096
304.948
304.805
304.662
304.521
304.379
304.238
304.098
303.965
303.838
303.718
303.6
303.48
303.358
303.233
303.105
302.976
302.849
302.725
302.605
302.487
302.372
302.256
302.134
302.007
301.875
301.742
301.609
301.475
301.336
301.188
301.029
300.859
300.68
300.491
300.301
300.109
299.916
299.715
299.498
299.266
299.016
298.753
298.476
298.199
297.919
297.64
297.352
297.042
296.713
296.36
295.991
295.607
295.226
294.847
294.476
294.099
293.7
293.285
292.85
292.405
313.686
313.286
312.874
312.519
312.167
311.763
311.363
310.916
310.485
310.017
309.608
309.208
308.867
308.543
308.273
308.013
307.724
307.443
307.14
306.874
306.615
306.394
306.186
306.011
305.845
305.663
305.487
305.3
305.138
304.982
304.852
304.728
304.593
304.461
304.319
304.182
304.037
303.91
303.787
303.682
303.581
303.468
303.355
303.229
303.106
302.97
302.847
302.723
302.612
302.501
302.403
302.302
302.185
302.065
301.93
301.805
301.677
301.561
301.441
301.299
301.151
300.978
300.802
300.602
300.417
300.227
300.056
299.878
299.666
299.444
299.184
298.919
298.619
298.343
298.06
297.809
297.549
297.24
296.919
296.545
296.167
295.742
295.357
294.967
294.626
294.281
293.878
293.47
293.011
292.577
313.468
313.162
312.646
312.401
312.161
311.673
311.346
310.78
310.408
309.752
309.4
308.902
308.629
308.253
308.073
307.899
307.552
307.319
306.905
306.682
306.369
306.197
305.963
305.849
305.741
305.529
305.387
305.141
305.009
304.832
304.747
304.668
304.518
304.417
304.25
304.139
303.95
303.848
303.71
303.642
303.578
303.455
303.369
303.224
303.123
302.946
302.847
302.702
302.619
302.498
302.436
302.372
302.241
302.146
301.971
301.872
301.726
301.652
301.576
301.42
301.306
301.102
300.957
300.691
300.54
300.318
300.206
300.089
299.849
299.675
299.359
299.137
298.727
298.496
298.158
297.989
297.816
297.456
297.2
296.735
296.412
295.82
295.492
295.015
294.782
294.548
294.062
293.729
293.135
292.798
291.093
290.576
290.05
289.516
288.975
288.426
287.871
287.311
286.746
286.176
285.604
285.028
284.45
283.871
283.29
291.102
290.585
290.058
289.524
288.981
288.432
287.877
287.316
286.75
286.18
285.606
285.03
284.452
283.872
283.291
291.121
290.602
290.075
289.539
288.995
288.444
287.888
287.325
286.758
286.187
285.612
285.034
284.455
283.873
283.291
291.149
290.629
290.099
289.561
289.015
288.463
287.904
287.339
286.77
286.197
285.62
285.041
284.459
283.876
283.292
291.187
290.664
290.132
289.591
289.043
288.487
287.925
287.358
286.786
286.21
285.631
285.049
284.465
283.88
283.293
291.234
290.709
290.173
289.629
289.077
288.518
287.953
287.382
286.806
286.227
285.645
285.059
284.472
283.884
283.295
291.292
290.763
290.223
289.675
289.118
288.555
287.985
287.41
286.83
286.247
285.661
285.072
284.481
283.889
283.296
291.36
290.827
290.282
289.729
289.167
288.597
288.022
287.442
286.858
286.27
285.679
285.086
284.491
283.895
283.298
291.44
290.901
290.35
289.79
289.222
288.646
288.065
287.479
286.889
286.296
285.7
285.102
284.502
283.902
283.301
291.532
290.986
290.428
289.86
289.284
288.701
288.112
287.519
286.923
286.324
285.722
285.119
284.515
283.909
283.303
291.638
291.083
290.516
289.938
289.352
288.76
288.164
287.563
286.96
286.354
285.747
285.138
284.528
283.917
283.306
291.758
291.194
290.614
290.024
289.427
288.824
288.218
287.61
286.999
286.386
285.772
285.157
284.542
283.925
283.308
291.898
291.318
290.722
290.117
289.506
288.892
288.276
287.658
287.04
286.42
285.799
285.178
284.556
283.934
283.311
292.062
291.459
290.84
290.215
289.589
288.962
288.335
287.708
287.081
286.454
285.826
285.199
284.571
283.942
283.314
292.268
291.617
290.963
290.314
289.671
289.032
288.394
287.758
287.123
286.488
285.854
285.22
284.585
283.951
283.317
322.686
322.057
321.429
320.8
320.171
319.543
318.914
318.284
317.654
317.022
316.387
315.748
315.101
314.434
313.713
322.683
322.049
321.416
320.782
320.147
319.513
318.878
318.242
317.604
316.964
316.321
315.671
315.012
314.333
313.623
322.681
322.042
321.403
320.764
320.124
319.484
318.843
318.2
317.556
316.909
316.258
315.602
314.935
314.255
313.555
322.678
322.034
321.39
320.746
320.101
319.455
318.808
318.16
317.51
316.857
316.2
315.538
314.869
314.192
313.51
322.676
322.027
321.378
320.728
320.078
319.427
318.775
318.122
317.466
316.808
316.146
315.48
314.809
314.131
313.44
322.673
322.02
321.366
320.712
320.057
319.401
318.743
318.085
317.424
316.761
316.095
315.426
314.754
314.079
313.405
322.671
322.013
321.354
320.695
320.035
319.375
318.713
318.049
317.383
316.716
316.046
315.373
314.7
314.028
313.369
322.669
322.006
321.343
320.679
320.015
319.35
318.683
318.015
317.345
316.673
315.998
315.322
314.645
313.968
313.291
322.667
321.999
321.332
320.664
319.995
319.326
318.655
317.982
317.307
316.631
315.953
315.272
314.59
313.909
313.238
322.664
321.993
321.322
320.649
319.977
319.303
318.627
317.95
317.272
316.591
315.908
315.223
314.535
313.843
313.139
322.662
321.987
321.312
320.635
319.958
319.28
318.601
317.92
317.238
316.553
315.866
315.176
314.482
313.785
313.087
322.661
321.981
321.302
320.622
319.941
319.259
318.576
317.892
317.205
316.516
315.825
315.131
314.433
313.728
313.011
322.659
321.976
321.293
320.609
319.925
319.239
318.552
317.864
317.174
316.482
315.787
315.089
314.387
313.68
312.97
322.657
321.971
321.284
320.597
319.909
319.22
318.53
317.838
317.145
316.449
315.751
315.05
314.346
313.635
312.913
322.655
321.966
321.276
320.585
319.894
319.202
318.508
317.813
317.117
316.418
315.717
315.014
314.308
313.599
312.887
322.654
321.961
321.268
320.574
319.88
319.184
318.488
317.79
317.09
316.389
315.685
314.98
314.272
313.565
312.863
322.652
321.956
321.26
320.564
319.866
319.168
318.468
317.768
317.065
316.361
315.655
314.947
314.237
313.526
312.813
322.651
321.952
321.253
320.554
319.853
319.152
318.45
317.747
317.042
316.335
315.626
314.916
314.204
313.49
312.78
322.649
321.948
321.246
320.544
319.841
319.138
318.433
317.727
317.019
316.31
315.599
314.886
314.171
313.451
312.724
322.648
321.944
321.24
320.535
319.83
319.124
318.416
317.708
316.998
316.287
315.574
314.858
314.14
313.419
312.695
322.647
321.94
321.234
320.527
319.819
319.11
318.401
317.69
316.978
316.265
315.55
314.832
314.112
313.388
312.656
322.646
321.937
321.228
320.519
319.809
319.098
318.386
317.674
316.96
316.244
315.527
314.808
314.087
313.364
312.638
322.645
321.934
321.223
320.511
319.799
319.086
318.373
317.658
316.942
316.225
315.506
314.786
314.064
313.342
312.623
322.644
321.931
321.218
320.504
319.79
319.075
318.36
317.643
316.926
316.207
315.486
314.765
314.042
313.318
312.592
322.643
321.928
321.213
320.498
319.782
319.065
318.348
317.629
316.91
316.189
315.468
314.744
314.02
313.296
312.573
322.642
321.925
321.208
320.491
319.774
319.055
318.336
317.616
316.895
316.173
315.45
314.725
313.999
313.272
312.542
322.641
321.923
321.204
320.486
319.766
319.046
318.326
317.604
316.882
316.158
315.433
314.707
313.979
313.25
312.523
322.64
321.92
321.2
320.48
319.759
319.038
318.316
317.593
316.869
316.144
315.418
314.69
313.96
313.228
312.491
322.639
321.918
321.197
320.475
319.753
319.03
318.307
317.582
316.857
316.131
315.403
314.674
313.943
313.21
312.474
322.639
321.916
321.193
320.47
319.747
319.023
318.298
317.573
316.846
316.119
315.39
314.66
313.928
313.193
312.454
322.638
321.914
321.19
320.466
319.741
319.016
318.29
317.563
316.836
316.107
315.378
314.647
313.914
313.18
312.444
322.638
321.913
321.187
320.462
319.736
319.01
318.283
317.555
316.827
316.097
315.367
314.635
313.902
313.169
312.437
322.637
321.911
321.185
320.458
319.731
319.004
318.276
317.547
316.818
316.088
315.357
314.624
313.891
313.157
312.422
322.637
321.909
321.182
320.455
319.727
318.999
318.27
317.54
316.81
316.079
315.347
314.614
313.881
313.146
312.413
322.636
321.908
321.18
320.452
319.723
318.994
318.264
317.534
316.803
316.071
315.339
314.605
313.871
313.135
312.398
322.636
321.907
321.178
320.449
319.72
318.99
318.259
317.528
316.797
316.064
315.331
314.597
313.862
313.126
312.39
322.635
321.906
321.176
320.446
319.716
318.986
318.255
317.523
316.791
316.058
315.324
314.589
313.853
313.116
312.376
322.635
321.905
321.175
320.444
319.713
318.982
318.251
317.518
316.786
316.052
315.318
314.582
313.846
313.108
312.37
322.635
321.904
321.173
320.442
319.711
318.979
318.247
317.514
316.781
316.047
315.312
314.577
313.84
313.102
312.361
322.634
321.903
321.172
320.44
319.709
318.977
318.244
317.511
316.777
316.043
315.308
314.572
313.835
313.097
312.358
322.634
321.903
321.171
320.439
319.707
318.974
318.241
317.508
316.774
316.039
315.304
314.567
313.83
313.093
312.355
322.634
321.902
321.17
320.438
319.705
318.972
318.239
317.505
316.771
316.036
315.3
314.564
313.827
313.089
312.351
322.634
321.902
321.169
320.437
319.704
318.971
318.237
317.503
316.769
316.033
315.298
314.561
313.824
313.086
312.348
322.634
321.901
321.169
320.436
319.703
318.97
318.236
317.502
316.767
316.032
315.296
314.559
313.822
313.084
312.345
322.634
321.901
321.168
320.436
319.702
318.969
318.235
317.501
316.766
316.03
315.294
314.557
313.82
313.082
312.343
322.634
321.901
321.168
320.435
319.702
318.968
318.234
317.5
316.765
316.029
315.293
314.556
313.819
313.081
312.342
322.634
321.901
321.168
320.435
319.702
318.968
318.234
317.5
316.765
316.029
315.293
314.556
313.819
313.08
312.341
322.634
321.901
321.168
320.435
319.702
318.969
318.235
317.5
316.765
316.03
315.293
314.557
313.819
313.081
312.342
322.634
321.901
321.169
320.436
319.703
318.969
318.235
317.501
316.766
316.031
315.294
314.558
313.82
313.081
312.342
322.634
321.902
321.169
320.436
319.703
318.97
318.236
317.502
316.768
316.032
315.296
314.559
313.822
313.083
312.343
322.634
321.902
321.17
320.437
319.705
318.972
318.238
317.504
316.77
316.034
315.298
314.562
313.824
313.086
312.346
322.634
321.902
321.171
320.438
319.706
318.973
318.24
317.506
316.772
316.037
315.301
314.565
313.828
313.089
312.349
322.634
321.903
321.171
320.44
319.708
318.975
318.243
317.509
316.775
316.041
315.305
314.569
313.832
313.094
312.355
322.635
321.904
321.173
320.441
319.71
318.978
318.246
317.513
316.779
316.045
315.31
314.574
313.837
313.099
312.36
322.635
321.905
321.174
320.443
319.712
318.981
318.249
317.516
316.783
316.049
315.315
314.579
313.843
313.106
312.369
322.635
321.905
321.176
320.446
319.715
318.984
318.253
317.521
316.788
316.055
315.32
314.585
313.849
313.113
312.375
322.636
321.907
321.177
320.448
319.718
318.988
318.257
317.526
316.794
316.061
315.327
314.592
313.857
313.12
312.385
322.636
321.908
321.179
320.451
319.722
318.992
318.262
317.531
316.8
316.068
315.334
314.6
313.864
313.128
312.39
322.636
321.909
321.182
320.454
319.726
318.997
318.268
317.538
316.807
316.075
315.343
314.609
313.873
313.136
312.396
322.637
321.91
321.184
320.457
319.73
319.002
318.274
317.545
316.815
316.084
315.352
314.618
313.884
313.147
312.409
322.637
321.912
321.187
320.461
319.735
319.008
318.281
317.552
316.823
316.093
315.362
314.629
313.895
313.159
312.419
322.638
321.914
321.189
320.465
319.74
319.014
318.288
317.561
316.833
316.104
315.373
314.642
313.909
313.174
312.438
322.639
321.916
321.193
320.469
319.745
319.021
318.296
317.57
316.843
316.115
315.386
314.655
313.923
313.189
312.452
322.639
321.918
321.196
320.474
319.751
319.028
318.304
317.58
316.854
316.127
315.399
314.67
313.939
313.208
312.479
322.64
321.92
321.2
320.479
319.758
319.036
318.314
317.59
316.866
316.14
315.414
314.685
313.956
313.226
312.495
322.641
321.922
321.204
320.485
319.765
319.045
318.324
317.602
316.879
316.155
315.429
314.702
313.974
313.245
312.519
322.642
321.925
321.208
320.491
319.773
319.054
318.335
317.614
316.893
316.17
315.446
314.72
313.992
313.263
312.531
322.643
321.928
321.212
320.497
319.781
319.064
318.346
317.628
316.908
316.186
315.464
314.739
314.012
313.281
312.545
322.644
321.931
321.217
320.504
319.789
319.074
318.359
317.642
316.924
316.204
315.483
314.76
314.034
313.305
312.574
322.645
321.934
321.222
320.511
319.799
319.086
318.372
317.657
316.941
316.223
315.504
314.782
314.058
313.331
312.595
322.646
321.937
321.228
320.518
319.808
319.098
318.386
317.673
316.959
316.243
315.526
314.807
314.086
313.361
312.636
322.647
321.94
321.234
320.526
319.819
319.11
318.401
317.69
316.978
316.265
315.55
314.834
314.115
313.393
312.665
322.648
321.944
321.24
320.535
319.83
319.124
318.417
317.708
316.999
316.288
315.576
314.862
314.146
313.431
312.72
322.649
321.948
321.246
320.544
319.841
319.138
318.433
317.727
317.02
316.312
315.602
314.891
314.178
313.465
312.75
322.651
321.952
321.253
320.554
319.853
319.153
318.451
317.748
317.043
316.337
315.63
314.921
314.211
313.501
312.797
322.652
321.956
321.26
320.564
319.866
319.168
318.469
317.769
317.067
316.364
315.659
314.952
314.243
313.532
312.82
322.654
321.961
321.268
320.574
319.88
319.185
318.488
317.791
317.092
316.391
315.689
314.984
314.277
313.565
312.844
322.655
321.966
321.276
320.585
319.894
319.202
318.509
317.814
317.118
316.421
315.721
315.019
314.314
313.605
312.895
322.657
321.971
321.284
320.597
319.909
319.22
318.53
317.839
317.146
316.451
315.755
315.056
314.354
313.647
312.93
322.659
321.976
321.293
320.609
319.924
319.239
318.552
317.864
317.175
316.483
315.79
315.095
314.397
313.697
312.996
322.66
321.981
321.302
320.622
319.941
319.259
318.576
317.891
317.205
316.517
315.827
315.135
314.442
313.746
313.041
322.662
321.987
321.311
320.635
319.958
319.28
318.6
317.919
317.236
316.552
315.866
315.178
314.489
313.801
313.123
322.664
321.993
321.321
320.649
319.976
319.301
318.626
317.949
317.269
316.588
315.905
315.221
314.535
313.85
313.167
322.666
321.999
321.331
320.663
319.994
319.324
318.653
317.979
317.304
316.626
315.946
315.264
314.581
313.899
313.228
322.669
322.006
321.342
320.678
320.014
319.348
318.681
318.012
317.34
316.666
315.989
315.309
314.625
313.941
313.257
322.671
322.012
321.353
320.694
320.034
319.373
318.71
318.045
317.378
316.708
316.034
315.355
314.671
313.981
313.282
322.673
322.019
321.365
320.71
320.055
319.399
318.741
318.081
317.419
316.753
316.083
315.406
314.722
314.028
313.329
322.675
322.026
321.377
320.727
320.077
319.426
318.773
318.119
317.462
316.801
316.136
315.463
314.778
314.078
313.359
322.678
322.034
321.389
320.745
320.1
319.454
318.807
318.158
317.507
316.853
316.194
315.527
314.847
314.143
313.396
322.68
322.041
321.402
320.763
320.123
319.482
318.841
318.199
317.555
316.909
316.258
315.6
314.931
314.237
313.479
292.523
291.764
291.07
290.401
289.744
289.093
288.447
287.803
287.161
286.519
285.879
285.239
284.599
283.959
283.32
292.601
291.853
291.15
290.471
289.805
289.146
288.493
287.843
287.194
286.547
285.901
285.256
284.611
283.967
283.322
292.627
291.91
291.213
290.531
289.86
289.196
288.537
287.881
287.227
286.574
285.923
285.273
284.623
283.974
283.325
292.646
291.953
291.265
290.585
289.911
289.243
288.578
287.917
287.258
286.6
285.944
285.289
284.635
283.981
283.327
292.668
291.993
291.312
290.633
289.958
289.286
288.617
287.952
287.288
286.626
285.965
285.305
284.646
283.987
283.329
292.714
292.037
291.358
290.679
290.002
289.327
288.655
287.985
287.317
286.65
285.985
285.321
284.657
283.994
283.331
292.749
292.081
291.404
290.724
290.044
289.366
288.69
288.016
287.344
286.673
286.004
285.335
284.668
284
283.333
292.815
292.133
291.451
290.768
290.085
289.404
288.725
288.047
287.371
286.696
286.022
285.35
284.678
284.006
283.335
292.861
292.184
291.498
290.811
290.125
289.441
288.757
288.076
287.396
286.717
286.04
285.363
284.688
284.012
283.337
292.946
292.242
291.547
290.854
290.164
289.476
288.789
288.104
287.42
286.738
286.057
285.377
284.697
284.018
283.339
292.992
292.292
291.593
290.896
290.202
289.51
288.819
288.131
287.444
286.758
286.073
285.389
284.706
284.023
283.341
293.059
292.343
291.637
290.936
290.238
289.542
288.848
288.156
287.466
286.777
286.089
285.401
284.715
284.029
283.343
293.096
292.385
291.677
290.973
290.272
289.573
288.876
288.181
287.487
286.795
286.103
285.413
284.723
284.034
283.345
293.147
292.426
291.715
291.008
290.304
289.603
288.903
288.204
287.508
286.812
286.118
285.424
284.731
284.038
283.346
293.171
292.459
291.749
291.041
290.335
289.631
288.928
288.227
287.527
286.829
286.131
285.434
284.738
284.043
283.348
293.194
292.491
291.782
291.073
290.364
289.657
288.952
288.248
287.546
286.844
286.144
285.445
284.746
284.047
283.349
293.242
292.528
291.815
291.103
290.392
289.683
288.975
288.269
287.563
286.859
286.156
285.454
284.753
284.051
283.35
293.273
292.562
291.847
291.133
290.419
289.707
288.997
288.288
287.58
286.874
286.168
285.463
284.759
284.055
283.352
293.329
292.6
291.879
291.161
290.445
289.73
289.018
288.306
287.596
286.887
286.179
285.472
284.765
284.059
283.353
293.358
292.633
291.909
291.188
290.469
289.752
289.037
288.324
287.611
286.9
286.19
285.48
284.771
284.062
283.354
293.399
292.664
291.936
291.213
290.492
289.773
289.056
288.34
287.625
286.912
286.2
285.488
284.777
284.066
283.355
293.421
292.69
291.961
291.236
290.513
289.792
289.073
288.355
287.639
286.923
286.209
285.495
284.782
284.069
283.356
293.45
292.714
291.984
291.257
290.533
289.81
289.089
288.37
287.651
286.934
286.218
285.502
284.787
284.072
283.357
293.464
292.733
292.004
291.276
290.551
289.827
289.104
288.383
287.663
286.944
286.226
285.508
284.791
284.075
283.358
293.476
292.751
292.022
291.294
290.568
289.842
289.118
288.396
287.674
286.953
286.234
285.514
284.796
284.077
283.359
293.501
292.77
292.04
291.311
290.583
289.857
289.132
288.407
287.684
286.962
286.241
285.52
284.8
284.08
283.36
293.517
292.788
292.057
291.327
290.598
289.87
289.144
288.418
287.694
286.97
286.247
285.525
284.803
284.082
283.361
293.545
292.807
292.074
291.342
290.612
289.883
289.155
288.428
287.703
286.978
286.254
285.53
284.807
284.084
283.361
293.559
292.824
292.089
291.356
290.625
289.895
289.166
288.438
287.711
286.985
286.259
285.534
284.81
284.086
283.362
293.579
292.839
292.103
291.369
290.636
289.905
289.175
288.446
287.718
286.991
286.265
285.539
284.813
284.088
283.363
293.589
292.851
292.115
291.38
290.647
289.915
289.184
288.454
287.725
286.997
286.27
285.542
284.816
284.089
283.363
293.602
292.862
292.125
291.39
290.656
289.924
289.192
288.461
287.732
287.003
286.274
285.546
284.818
284.091
283.364
293.608
292.871
292.134
291.399
290.665
289.932
289.199
288.468
287.737
287.007
286.278
285.549
284.821
284.092
283.364
293.613
292.878
292.142
291.407
290.672
289.939
289.206
288.474
287.743
287.012
286.282
285.552
284.823
284.093
283.364
293.623
292.886
292.15
291.414
290.679
289.945
289.212
288.479
287.747
287.016
286.285
285.555
284.825
284.095
283.365
293.63
292.893
292.157
291.421
290.685
289.951
289.217
288.484
287.751
287.019
286.288
285.557
284.826
284.096
283.365
293.64
292.9
292.163
291.426
290.691
289.956
289.222
288.488