/*--------------------------------*- C++ -*----------------------------------*\
| =========                 |                                                 |
| \\      /  F ield         | OpenFOAM: The Open Source CFD Toolbox           |
|  \\    /   O peration     | Version:  5.x                                   |
|   \\  /    A nd           | Web:      www.OpenFOAM.org                      |
|    \\/     M anipulation  |                                                 |
\*---------------------------------------------------------------------------*/
FoamFile
{
    version     2.0;
    format      ascii;
    class       volScalarField;
    location    "0.2";
    object      gradTy;
}
// * * * * * * * * * * * * * * * * * * * * * * * * * * * * * * * * * * * * * //

dimensions      [0 -1 0 1 0 0 0];

internalField   nonuniform List<scalar> 
2048
(
-29.5395
-29.5246
-29.4957
-29.4539
-29.4015
-29.3406
-29.2736
-29.2029
-29.1306
-29.0585
-28.9883
-28.921
-28.8575
-28.7984
-28.7442
-28.6948
-28.6503
-28.6105
-28.5752
-28.5442
-28.5172
-28.4938
-28.4738
-28.4568
-28.4427
-28.4312
-28.4221
-28.4153
-28.4107
-28.4081
-28.4076
-28.4091
-28.4128
-28.4186
-28.4267
-28.4372
-28.4505
-28.4667
-28.4862
-28.5094
-28.5365
-28.5682
-28.6048
-28.6468
-28.6949
-28.7495
-28.8111
-28.88
-28.9567
-29.0413
-29.1337
-29.2336
-29.3402
-29.4526
-29.5691
-29.6876
-29.8058
-29.9205
-30.0283
-30.1256
-30.2089
-30.2748
-30.3205
-30.3438
-29.5482
-29.5327
-29.5025
-29.4592
-29.4049
-29.342
-29.2731
-29.2006
-29.1267
-29.0534
-28.9821
-28.914
-28.85
-28.7907
-28.7362
-28.6868
-28.6424
-28.6027
-28.5676
-28.5368
-28.51
-28.4868
-28.467
-28.4502
-28.4363
-28.4249
-28.4159
-28.4092
-28.4046
-28.4021
-28.4016
-28.4031
-28.4066
-28.4124
-28.4203
-28.4307
-28.4438
-28.4598
-28.479
-28.5018
-28.5286
-28.5599
-28.5961
-28.6378
-28.6855
-28.7398
-28.8011
-28.8698
-28.9465
-29.0311
-29.1239
-29.2243
-29.3319
-29.4456
-29.5638
-29.6846
-29.8052
-29.9227
-30.0335
-30.1338
-30.2199
-30.2881
-30.3354
-30.3597
-29.5652
-29.5484
-29.5159
-29.4694
-29.4114
-29.3447
-29.272
-29.1961
-29.1192
-29.0434
-28.9702
-28.9007
-28.8358
-28.7758
-28.7211
-28.6716
-28.6273
-28.588
-28.5533
-28.5229
-28.4964
-28.4737
-28.4542
-28.4378
-28.4241
-28.413
-28.4042
-28.3977
-28.3932
-28.3907
-28.3902
-28.3916
-28.3951
-28.4006
-28.4083
-28.4184
-28.4311
-28.4467
-28.4654
-28.4876
-28.5138
-28.5443
-28.5798
-28.6208
-28.6678
-28.7213
-28.782
-28.8504
-28.9269
-29.0117
-29.105
-29.2067
-29.316
-29.4322
-29.5537
-29.6785
-29.8039
-29.9268
-30.0433
-30.1494
-30.2409
-30.3136
-30.3642
-30.3902
-29.5901
-29.5714
-29.5354
-29.4842
-29.4208
-29.3484
-29.2702
-29.1893
-29.1082
-29.029
-28.9531
-28.8816
-28.8153
-28.7546
-28.6995
-28.6501
-28.6061
-28.5671
-28.5329
-28.5031
-28.4773
-28.4551
-28.4362
-28.4203
-28.407
-28.3963
-28.3878
-28.3815
-28.3772
-28.3748
-28.3742
-28.3756
-28.3789
-28.3841
-28.3915
-28.4012
-28.4133
-28.4282
-28.4462
-28.4676
-28.4928
-28.5224
-28.5569
-28.5968
-28.6427
-28.6953
-28.7551
-28.8228
-28.899
-28.984
-29.0781
-29.1812
-29.293
-29.4126
-29.5387
-29.6693
-29.8016
-29.9323
-30.0572
-30.1718
-30.2712
-30.3507
-30.4062
-30.4348
-29.6231
-29.6019
-29.5611
-29.5035
-29.4327
-29.3528
-29.2675
-29.1802
-29.0937
-29.0101
-28.9309
-28.8571
-28.7892
-28.7276
-28.6723
-28.6229
-28.5793
-28.541
-28.5075
-28.4785
-28.4534
-28.432
-28.4138
-28.3984
-28.3858
-28.3755
-28.3674
-28.3614
-28.3572
-28.3549
-28.3544
-28.3556
-28.3587
-28.3636
-28.3706
-28.3797
-28.3911
-28.4052
-28.4223
-28.4426
-28.4667
-28.4951
-28.5282
-28.5667
-28.6113
-28.6625
-28.7212
-28.788
-28.8637
-28.9487
-29.0436
-29.1485
-29.2632
-29.387
-29.5189
-29.6567
-29.7978
-29.9386
-30.0746
-30.2004
-30.3104
-30.3989
-30.4611
-30.4932
-29.6645
-29.6399
-29.593
-29.5271
-29.447
-29.3577
-29.2635
-29.1685
-29.0755
-28.9869
-28.9039
-28.8274
-28.7579
-28.6954
-28.6398
-28.5907
-28.5477
-28.5101
-28.4776
-28.4495
-28.4255
-28.4049
-28.3875
-28.373
-28.361
-28.3512
-28.3436
-28.3379
-28.3339
-28.3317
-28.3312
-28.3323
-28.3351
-28.3397
-28.3462
-28.3546
-28.3653
-28.3785
-28.3944
-28.4135
-28.4363
-28.4631
-28.4947
-28.5315
-28.5744
-28.624
-28.6812
-28.7468
-28.8216
-28.9065
-29.0021
-29.1088
-29.2267
-29.3554
-29.4939
-29.6403
-29.7921
-29.9452
-30.0947
-30.2346
-30.358
-30.4581
-30.5287
-30.5653
-29.715
-29.6861
-29.6313
-29.5551
-29.4635
-29.3626
-29.2579
-29.1539
-29.0536
-28.9592
-28.8721
-28.7929
-28.7217
-28.6584
-28.6027
-28.5541
-28.5118
-28.4753
-28.4439
-28.417
-28.3941
-28.3746
-28.3581
-28.3444
-28.3332
-28.3241
-28.3169
-28.3116
-28.3079
-28.3058
-28.3053
-28.3063
-28.3088
-28.313
-28.3189
-28.3266
-28.3364
-28.3486
-28.3633
-28.381
-28.4022
-28.4273
-28.457
-28.4919
-28.5328
-28.5804
-28.6358
-28.6998
-28.7735
-28.858
-28.9541
-29.0625
-29.1838
-29.3177
-29.4635
-29.6197
-29.7836
-29.9513
-30.1171
-30.274
-30.4139
-30.5283
-30.6095
-30.6517
-29.7752
-29.741
-29.6763
-29.5873
-29.4817
-29.3672
-29.2503
-29.1359
-29.0275
-28.9271
-28.8357
-28.7537
-28.6809
-28.617
-28.5615
-28.5135
-28.4723
-28.4371
-28.407
-28.3815
-28.3598
-28.3415
-28.3262
-28.3134
-28.3029
-28.2945
-28.2879
-28.283
-28.2796
-28.2777
-28.2771
-28.278
-28.2803
-28.284
-28.2893
-28.2963
-28.3051
-28.3161
-28.3295
-28.3456
-28.3651
-28.3883
-28.4159
-28.4486
-28.4872
-28.5326
-28.5857
-28.6478
-28.72
-28.8036
-28.8999
-29.0099
-29.1344
-29.2737
-29.4273
-29.5942
-29.7718
-29.9561
-30.1409
-30.3181
-30.4778
-30.6097
-30.7038
-30.753
-29.8462
-29.8053
-29.7283
-29.6236
-29.5013
-29.3708
-29.2399
-29.1142
-28.9972
-28.8904
-28.7947
-28.71
-28.6358
-28.5716
-28.5165
-28.4695
-28.4296
-28.3959
-28.3675
-28.3435
-28.3232
-28.3063
-28.2921
-28.2804
-28.2708
-28.2631
-28.2571
-28.2526
-28.2496
-28.2478
-28.2472
-28.2479
-28.2499
-28.2532
-28.2578
-28.264
-28.2719
-28.2816
-28.2935
-28.308
-28.3256
-28.3467
-28.3721
-28.4024
-28.4384
-28.4812
-28.5317
-28.5914
-28.6615
-28.7439
-28.8399
-28.9511
-29.0787
-29.2233
-29.3851
-29.5633
-29.7558
-29.9587
-30.1653
-30.3663
-30.5497
-30.7025
-30.8124
-30.87
-29.9291
-29.8797
-29.7876
-29.664
-29.5217
-29.3728
-29.2263
-29.0883
-28.9622
-28.8491
-28.7492
-28.662
-28.5868
-28.5225
-28.4681
-28.4225
-28.3843
-28.3524
-28.3258
-28.3035
-28.2848
-28.2693
-28.2564
-28.2457
-28.2371
-28.2302
-28.2249
-28.2209
-28.2181
-28.2165
-28.216
-28.2165
-28.2182
-28.221
-28.225
-28.2303
-28.2371
-28.2456
-28.256
-28.2687
-28.2842
-28.3031
-28.326
-28.3537
-28.387
-28.4268
-28.4744
-28.5312
-28.5988
-28.6793
-28.7745
-28.8865
-29.0167
-29.1664
-29.3363
-29.5262
-29.7347
-29.9581
-30.1895
-30.4181
-30.6294
-30.8073
-30.936
-31.0037
-30.0252
-29.9654
-29.8546
-29.7081
-29.5424
-29.3723
-29.2086
-29.0576
-28.9223
-28.803
-28.6993
-28.61
-28.534
-28.4701
-28.4169
-28.3729
-28.3367
-28.307
-28.2824
-28.262
-28.2451
-28.231
-28.2194
-28.2099
-28.2023
-28.1962
-28.1916
-28.1881
-28.1856
-28.1842
-28.1837
-28.1841
-28.1855
-28.1878
-28.1911
-28.1956
-28.2013
-28.2084
-28.2172
-28.2281
-28.2415
-28.258
-28.2783
-28.3032
-28.3334
-28.3701
-28.4143
-28.4677
-28.5323
-28.6102
-28.7041
-28.8162
-28.9486
-29.103
-29.2807
-29.4824
-29.7076
-29.9533
-30.2124
-30.4727
-30.7167
-30.9243
-31.0755
-31.1553
-30.1361
-30.0633
-29.9296
-29.7554
-29.5623
-29.3685
-29.186
-29.0216
-28.8772
-28.7523
-28.6452
-28.5542
-28.4779
-28.4148
-28.3631
-28.3212
-28.2874
-28.2601
-28.2378
-28.2194
-28.2043
-28.1918
-28.1816
-28.1733
-28.1667
-28.1615
-28.1575
-28.1545
-28.1525
-28.1512
-28.1507
-28.151
-28.152
-28.1539
-28.1566
-28.1602
-28.1648
-28.1706
-28.1778
-28.1867
-28.1978
-28.2119
-28.2294
-28.2513
-28.2784
-28.3116
-28.3521
-28.4017
-28.4625
-28.5373
-28.629
-28.7405
-28.8745
-29.0331
-29.2181
-29.4313
-29.6734
-29.9428
-30.2327
-30.5292
-30.8114
-31.0541
-31.2321
-31.3261
-30.2635
-30.1746
-30.0128
-29.8055
-29.5805
-29.3601
-29.1577
-28.9797
-28.8268
-28.6969
-28.5871
-28.495
-28.4188
-28.3568
-28.3071
-28.2678
-28.2368
-28.2121
-28.1923
-28.1762
-28.163
-28.1521
-28.1433
-28.1362
-28.1307
-28.1264
-28.1231
-28.1206
-28.1189
-28.1178
-28.1173
-28.1175
-28.1182
-28.1197
-28.1217
-28.1245
-28.128
-28.1324
-28.1379
-28.1448
-28.1536
-28.1651
-28.1798
-28.1986
-28.2223
-28.2518
-28.2883
-28.3335
-28.39
-28.4609
-28.5497
-28.6599
-28.7947
-28.9567
-29.1483
-29.3723
-29.6312
-29.9255
-30.2491
-30.5867
-30.9132
-31.1973
-31.4068
-31.5175
-30.4095
-30.3006
-30.1043
-29.8573
-29.5957
-29.3459
-29.1226
-28.9314
-28.771
-28.6371
-28.5252
-28.4325
-28.357
-28.2966
-28.2494
-28.213
-28.1851
-28.1635
-28.1464
-28.1326
-28.1213
-28.1121
-28.1047
-28.0989
-28.0944
-28.091
-28.0885
-28.0866
-28.0852
-28.0843
-28.0838
-28.0838
-28.0843
-28.0853
-28.0867
-28.0887
-28.0911
-28.0941
-28.0979
-28.1027
-28.1092
-28.118
-28.1298
-28.1454
-28.1657
-28.1913
-28.2235
-28.2638
-28.3152
-28.3814
-28.4666
-28.5747
-28.7095
-28.8741
-29.0713
-29.3048
-29.5798
-29.8996
-30.26
-30.6439
-31.0217
-31.3545
-31.6008
-31.731
-30.5763
-30.4429
-30.2041
-29.9097
-29.6063
-29.3247
-29.0799
-28.8762
-28.7097
-28.5731
-28.4601
-28.3672
-28.2927
-28.2345
-28.1902
-28.1572
-28.1329
-28.1146
-28.1004
-28.089
-28.0797
-28.0722
-28.0661
-28.0615
-28.0582
-28.0557
-28.0539
-28.0526
-28.0515
-28.0508
-28.0504
-28.0502
-28.0504
-28.051
-28.0519
-28.053
-28.0544
-28.056
-28.0581
-28.0608
-28.0648
-28.0709
-28.0797
-28.0921
-28.1088
-28.1306
-28.1581
-28.1931
-28.2387
-28.2993
-28.38
-28.4852
-28.6192
-28.7857
-28.9873
-29.2287
-29.5183
-29.8636
-30.2634
-30.6994
-31.1364
-31.5263
-31.8157
-31.9681
-30.7667
-30.6029
-30.312
-29.9612
-29.6106
-29.2948
-29.0284
-28.8138
-28.6431
-28.5054
-28.3919
-28.2993
-28.2264
-28.1707
-28.1297
-28.1007
-28.0804
-28.0658
-28.0546
-28.0457
-28.0384
-28.0324
-28.0277
-28.0244
-28.0222
-28.0207
-28.0196
-28.0188
-28.0181
-28.0176
-28.0171
-28.0169
-28.0168
-28.0169
-28.0173
-28.0177
-28.018
-28.0184
-28.0187
-28.0193
-28.0208
-28.024
-28.0298
-28.039
-28.0522
-28.07
-28.0928
-28.1219
-28.1608
-28.215
-28.2903
-28.3917
-28.5241
-28.6918
-28.8967
-29.1436
-29.4454
-29.8156
-30.2575
-30.7516
-31.2566
-31.7138
-32.0529
-32.2301
-30.9835
-30.7827
-30.4277
-30.0096
-29.6065
-29.2548
-28.9672
-28.7438
-28.5714
-28.4345
-28.3213
-28.2292
-28.1582
-28.1056
-28.0683
-28.0437
-28.0279
-28.0173
-28.0093
-28.0029
-27.9975
-27.9931
-27.9896
-27.9875
-27.9865
-27.986
-27.9857
-27.9854
-27.985
-27.9846
-27.9842
-27.9838
-27.9835
-27.9832
-27.9831
-27.9828
-27.9822
-27.9812
-27.9799
-27.9783
-27.9772
-27.9775
-27.9803
-27.9862
-27.9959
-28.0099
-28.0279
-28.0505
-28.0821
-28.1289
-28.198
-28.2947
-28.4247
-28.5931
-28.8
-29.0496
-29.3602
-29.7534
-30.24
-30.7985
-31.3812
-31.918
-32.3142
-32.5184
-31.2299
-30.9843
-30.5503
-30.0524
-29.592
-29.2032
-28.8953
-28.666
-28.495
-28.3611
-28.2488
-28.1571
-28.0885
-28.0393
-28.0062
-27.9865
-27.9757
-27.9694
-27.9646
-27.9607
-27.9573
-27.9542
-27.9519
-27.9511
-27.9512
-27.9518
-27.9522
-27.9524
-27.9524
-27.9522
-27.9517
-27.9512
-27.9506
-27.95
-27.9494
-27.9485
-27.947
-27.9448
-27.9418
-27.938
-27.9342
-27.9316
-27.9314
-27.934
-27.9403
-27.9507
-27.9639
-27.9796
-28.0028
-28.0412
-28.1033
-28.1944
-28.3212
-28.4903
-28.6983
-28.9468
-29.2617
-29.675
-30.2085
-30.8381
-31.5089
-32.1404
-32.6014
-32.8339
-31.5094
-31.2104
-30.6787
-30.0859
-29.5646
-29.1386
-28.8117
-28.5803
-28.4144
-28.2861
-28.1748
-28.0831
-28.0174
-27.972
-27.9434
-27.9293
-27.924
-27.9224
-27.9208
-27.9192
-27.9178
-27.9159
-27.9146
-27.915
-27.9165
-27.9181
-27.9192
-27.9199
-27.9202
-27.9202
-27.9197
-27.919
-27.9181
-27.9172
-27.9163
-27.9148
-27.9124
-27.9091
-27.9046
-27.8985
-27.892
-27.8863
-27.8831
-27.8825
-27.8853
-27.8926
-27.9013
-27.9095
-27.9234
-27.9521
-28.0065
-28.0913
-28.2136
-28.3842
-28.593
-28.8359
-29.1491
-29.5777
-30.1604
-30.8681
-31.6377
-32.3835
-32.9168
-33.1772
-31.8256
-31.4644
-30.8112
-30.1056
-29.5221
-29.0598
-28.7152
-28.4868
-28.3304
-28.2108
-28.1
-28.0073
-27.9452
-27.9041
-27.88
-27.8722
-27.873
-27.8765
-27.8781
-27.8787
-27.8792
-27.8783
-27.8778
-27.8795
-27.8822
-27.885
-27.8868
-27.888
-27.8886
-27.8887
-27.8882
-27.8873
-27.8862
-27.8849
-27.8837
-27.8819
-27.8786
-27.8743
-27.8683
-27.8599
-27.8505
-27.8416
-27.8355
-27.8318
-27.8311
-27.8359
-27.8407
-27.8406
-27.844
-27.8617
-27.9082
-27.9856
-28.102
-28.2755
-28.4858
-28.7174
-29.0217
-29.4586
-30.0933
-30.8861
-31.7644
-32.6505
-33.263
-33.5482
-32.1822
-31.7509
-30.9455
-30.1057
-29.4627
-28.966
-28.6048
-28.3858
-28.2437
-28.1367
-28.0249
-27.9293
-27.8721
-27.8357
-27.8161
-27.8155
-27.823
-27.8321
-27.8364
-27.839
-27.8416
-27.8414
-27.8414
-27.8444
-27.8487
-27.8527
-27.8551
-27.8566
-27.8576
-27.8578
-27.8573
-27.8562
-27.8548
-27.8532
-27.8518
-27.8497
-27.8456
-27.8403
-27.833
-27.8222
-27.8098
-27.7976
-27.7888
-27.7819
-27.7776
-27.7808
-27.7825
-27.7734
-27.7652
-27.7702
-27.8086
-27.8778
-27.9859
-28.1654
-28.3793
-28.5924
-28.8792
-29.3143
-30.0048
-30.89
-31.884
-32.9466
-33.643
-33.9457
-32.5825
-32.0759
-31.0785
-30.0782
-29.3853
-28.8571
-28.479
-28.278
-28.1553
-28.0659
-27.9501
-27.8488
-27.7986
-27.7672
-27.7516
-27.7594
-27.7742
-27.7895
-27.796
-27.8003
-27.8053
-27.8052
-27.8053
-27.81
-27.8158
-27.8212
-27.8241
-27.8259
-27.8273
-27.8275
-27.8269
-27.8257
-27.824
-27.822
-27.8206
-27.8184
-27.8134
-27.8074
-27.799
-27.7857
-27.7701
-27.7542
-27.743
-27.7331
-27.7246
-27.7276
-27.7276
-27.7081
-27.6871
-27.6773
-27.7084
-27.7686
-27.8644
-28.0545
-28.2768
-28.4621
-28.7218
-29.1407
-29.8928
-30.8783
-31.9887
-33.2798
-34.0604
-34.3674
-33.029
-32.4481
-31.2058
-30.0131
-29.2901
-28.7335
-28.3358
-28.1645
-28.0659
-28.0007
-27.8762
-27.7647
-27.7253
-27.699
-27.6864
-27.7041
-27.7267
-27.7492
-27.757
-27.7626
-27.7704
-27.77
-27.7696
-27.7762
-27.7837
-27.7906
-27.7939
-27.7959
-27.7978
-27.798
-27.7973
-27.7959
-27.7939
-27.7914
-27.7902
-27.7881
-27.782
-27.7754
-27.7665
-27.7503
-27.7315
-27.7115
-27.6984
-27.6855
-27.6718
-27.6764
-27.6768
-27.6453
-27.6105
-27.5826
-27.6082
-27.659
-27.7357
-27.9439
-28.1828
-28.3275
-28.5508
-28.9322
-29.7558
-30.851
-32.0661
-33.6624
-34.519
-34.8095
-33.5228
-32.88
-31.3218
-29.8967
-29.1794
-28.5965
-28.1725
-28.047
-27.9762
-27.9447
-27.8035
-27.6756
-27.6532
-27.6317
-27.6199
-27.6502
-27.6808
-27.7118
-27.7194
-27.7257
-27.7375
-27.7357
-27.7341
-27.7432
-27.7525
-27.7613
-27.7646
-27.7667
-27.7692
-27.7693
-27.7685
-27.7669
-27.7645
-27.7615
-27.7607
-27.759
-27.7515
-27.7446
-27.7356
-27.7161
-27.6942
-27.6693
-27.6552
-27.6395
-27.6187
-27.6273
-27.6313
-27.585
-27.5357
-27.4853
-27.509
-27.5506
-27.597
-27.8341
-28.1031
-28.1894
-28.3684
-28.6817
-29.5932
-30.8107
-32.0963
-34.1129
-35.0228
-35.2658
-34.0629
-33.3892
-31.4185
-29.7109
-29.0589
-28.4484
-27.9845
-27.9285
-27.8858
-27.9023
-27.7321
-27.5788
-27.5836
-27.5659
-27.5515
-27.5981
-27.6364
-27.6781
-27.6832
-27.6894
-27.7071
-27.7024
-27.6986
-27.7112
-27.7223
-27.7335
-27.7362
-27.7383
-27.7416
-27.7415
-27.7406
-27.7388
-27.7361
-27.7322
-27.7321
-27.7314
-27.7218
-27.7149
-27.7067
-27.6833
-27.6583
-27.6273
-27.6135
-27.5957
-27.5644
-27.5805
-27.5927
-27.5272
-27.464
-27.3841
-27.4118
-27.4461
-27.4439
-27.7254
-28.0457
-28.0471
-28.1794
-28.3789
-29.405
-30.7647
-32.0487
-34.6598
-35.5748
-35.7279
-34.6443
-34.0008
-31.4855
-29.4318
-28.9391
-28.2923
-27.7653
-27.8134
-27.7935
-27.8793
-27.6619
-27.4707
-27.5188
-27.5022
-27.4799
-27.5487
-27.5933
-27.649
-27.648
-27.6532
-27.6798
-27.6701
-27.6627
-27.6804
-27.693
-27.7073
-27.7088
-27.7106
-27.7153
-27.7146
-27.7137
-27.7117
-27.7087
-27.7035
-27.7045
-27.7054
-27.6929
-27.6863
-27.6802
-27.6517
-27.6243
-27.5851
-27.5737
-27.5546
-27.5075
-27.5357
-27.5629
-27.4715
-27.3965
-27.2767
-27.3178
-27.3491
-27.27
-27.6173
-28.0211
-27.8983
-27.9918
-28.0097
-29.1927
-30.7273
-31.8763
-35.3454
-36.1763
-36.1849
-35.2573
-34.7501
-31.509
-29.0278
-28.8375
-28.1321
-27.5048
-27.7088
-27.6956
-27.8836
-27.5922
-27.346
-27.4621
-27.4414
-27.403
-27.5033
-27.5507
-27.6257
-27.6136
-27.6163
-27.6564
-27.6387
-27.6258
-27.651
-27.6645
-27.6829
-27.6822
-27.6836
-27.6902
-27.6886
-27.6877
-27.6855
-27.6824
-27.675
-27.6777
-27.6814
-27.6643
-27.6585
-27.6565
-27.6211
-27.5923
-27.542
-27.536
-27.5174
-27.4462
-27.4926
-27.5444
-27.4163
-27.3356
-27.1594
-27.2284
-27.2656
-27.0659
-27.5088
-28.0433
-27.7368
-27.8184
-27.554
-28.9583
-30.7248
-31.5084
-36.2322
-36.8243
-36.623
-35.8847
-35.6863
-31.4703
-28.4574
-28.7808
-27.9722
-27.1887
-27.6257
-27.5855
-27.9257
-27.5214
-27.1973
-27.4184
-27.3842
-27.3178
-27.4635
-27.5074
-27.61
-27.5789
-27.5776
-27.6383
-27.6078
-27.5869
-27.6234
-27.6364
-27.6608
-27.6561
-27.6568
-27.6663
-27.6632
-27.6625
-27.66
-27.657
-27.6466
-27.6516
-27.6597
-27.6355
-27.6312
-27.636
-27.5908
-27.5631
-27.4968
-27.5004
-27.4856
-27.3776
-27.4506
-27.5406
-27.3594
-27.2845
-27.0271
-27.1449
-27.2042
-26.8188
-27.3972
-28.1316
-27.5509
-27.6796
-26.9839
-28.7047
-30.8003
-30.8411
-37.4112
-37.5082
-37.0259
-36.4999
-36.8765
-31.3448
-27.6667
-28.8087
-27.8169
-26.7963
-27.5806
-27.452
-28.0201
-27.4474
-27.0145
-27.3947
-27.3313
-27.2203
-27.4324
-27.4611
-27.6043
-27.5431
-27.5355
-27.627
-27.577
-27.545
-27.598
-27.6081
-27.6411
-27.6302
-27.63
-27.6439
-27.6381
-27.6379
-27.6351
-27.6327
-27.6177
-27.6257
-27.6407
-27.606
-27.6039
-27.6194
-27.56
-27.5373
-27.4478
-27.4671
-27.4614
-27.2982
-27.4085
-27.5564
-27.2966
-27.2484
-26.8725
-27.0688
-27.1775
-26.5112
-27.2786
-28.3119
-27.3209
-27.6064
-26.2609
-28.4339
-31.0221
-29.7247
-39.0129
-38.2055
-37.376
-37.0636
-38.4112
-31.1004
-26.5867
-28.9775
-27.6699
-26.2995
-27.5979
-27.2773
-28.1865
-27.3668
-26.7846
-27.4012
-27.2834
-27.1048
-27.4143
-27.4085
-27.6119
-27.5046
-27.488
-27.6252
-27.5458
-27.4986
-27.5761
-27.579
-27.6247
-27.6041
-27.6029
-27.6232
-27.6132
-27.614
-27.6107
-27.6097
-27.5879
-27.6
-27.6252
-27.575
-27.5759
-27.6081
-27.5275
-27.5165
-27.3931
-27.4364
-27.4483
-27.2032
-27.3652
-27.5983
-27.2218
-27.2352
-26.6857
-27.0014
-27.2032
-26.1202
-27.1469
-28.6197
-27.0151
-27.6449
-25.3329
-28.1466
-31.4933
-27.9479
-41.2209
-38.8749
-37.6551
-37.5209
-40.4102
-30.6952
-25.1299
-29.3652
-27.5332
-25.6605
-27.7135
-27.0349
-28.4515
-27.2751
-26.4911
-27.4523
-27.2413
-26.9643
-27.4163
-27.3455
-27.6382
-27.4623
-27.4332
-27.6367
-27.5139
-27.4466
-27.5597
-27.5484
-27.613
-27.5779
-27.5756
-27.6052
-27.5887
-27.5913
-27.5872
-27.589
-27.5574
-27.5746
-27.6151
-27.5423
-27.5473
-27.6041
-27.4921
-27.5035
-27.3305
-27.4089
-27.4514
-27.0874
-27.3194
-27.6757
-27.1265
-27.257
-26.454
-26.9438
-27.3065
-25.6169
-26.9936
-29.1028
-26.5861
-27.8615
-24.1308
-27.8392
-32.3655
-25.2184
-44.29
-39.4476
-37.8473
-37.7973
-43.029
-30.0751
-23.1863
-30.0755
-27.4047
-24.829
-27.9767
-26.6859
-28.8504
-27.1653
-26.1123
-27.5666
-27.2046
-26.7889
-27.4473
-27.2647
-27.6896
-27.4134
-27.3675
-27.6659
-27.4801
-27.3865
-27.5508
-27.5149
-27.6073
-27.5509
-27.5476
-27.5904
-27.5641
-27.5699
-27.5643
-27.571
-27.5253
-27.5488
-27.6116
-27.5064
-27.5169
-27.6096
-27.4513
-27.5013
-27.2564
-27.3845
-27.4771
-26.9431
-27.2685
-27.8005
-26.9971
-27.3299
-26.1596
-26.8958
-27.52
-24.9632
-26.8058
-29.8243
-25.9635
-28.3486
-22.5635
-27.4993
-33.8528
-21.1388
-48.5657
-39.8154
-37.9412
)
;

boundaryField
{
    left
    {
        type            calculated;
        value           nonuniform List<scalar> 
32
(
-29.5395
-29.5482
-29.5652
-29.5901
-29.6231
-29.6645
-29.715
-29.7752
-29.8462
-29.9291
-30.0252
-30.1361
-30.2635
-30.4095
-30.5763
-30.7667
-30.9835
-31.2299
-31.5094
-31.8256
-32.1822
-32.5825
-33.029
-33.5228
-34.0629
-34.6443
-35.2573
-35.8847
-36.4999
-37.0636
-37.5209
-37.7973
)
;
    }
    right
    {
        type            calculated;
        value           nonuniform List<scalar> 
32
(
-30.3438
-30.3597
-30.3902
-30.4348
-30.4932
-30.5653
-30.6517
-30.753
-30.87
-31.0037
-31.1553
-31.3261
-31.5175
-31.731
-31.9681
-32.2301
-32.5184
-32.8339
-33.1772
-33.5482
-33.9457
-34.3674
-34.8095
-35.2658
-35.7279
-36.1849
-36.623
-37.0259
-37.376
-37.6551
-37.8473
-37.9412
)
;
    }
    interface
    {
        type            calculated;
        value           nonuniform List<scalar> 
64
(
-37.8796
-44.5153
-29.7035
-22.0775
-30.5261
-27.342
-24.3579
-28.1524
-26.4788
-29.0882
-27.1047
-25.8984
-27.6422
-27.1874
-26.6909
-27.4712
-27.2188
-27.7223
-27.3869
-27.3313
-27.6854
-27.4625
-27.354
-27.5485
-27.4969
-27.606
-27.537
-27.5332
-27.5838
-27.5515
-27.5593
-27.5528
-27.5625
-27.5086
-27.5357
-27.6116
-27.4874
-27.5009
-27.615
-27.4289
-27.5032
-27.2158
-27.3729
-27.4963
-26.8626
-27.2413
-27.8762
-26.9218
-27.3814
-25.9942
-26.874
-27.659
-24.5934
-26.7014
-30.2534
-25.5933
-28.6731
-21.6757
-27.3189
-34.7814
-18.7043
-51.0548
-39.9317
-37.9625
)
;
    }
    bottom
    {
        type            calculated;
        value           nonuniform List<scalar> 
64
(
-29.5373
-29.5226
-29.4939
-29.4526
-29.4006
-29.3402
-29.2738
-29.2035
-29.1316
-29.0599
-28.9899
-28.9228
-28.8594
-28.8005
-28.7462
-28.6969
-28.6523
-28.6125
-28.5772
-28.5462
-28.5191
-28.4956
-28.4755
-28.4585
-28.4444
-28.4328
-28.4237
-28.4169
-28.4122
-28.4097
-28.4092
-28.4107
-28.4144
-28.4202
-28.4283
-28.439
-28.4523
-28.4686
-28.4881
-28.5113
-28.5386
-28.5703
-28.607
-28.6492
-28.6974
-28.752
-28.8137
-28.8827
-28.9594
-29.044
-29.1363
-29.2359
-29.3423
-29.4543
-29.5704
-29.6884
-29.8059
-29.9199
-30.0269
-30.1235
-30.2061
-30.2714
-30.3166
-30.3397
)
;
    }
    defaultFaces
    {
        type            empty;
    }
}


// ************************************************************************* //
