/*--------------------------------*- C++ -*----------------------------------*\
| =========                 |                                                 |
| \\      /  F ield         | OpenFOAM: The Open Source CFD Toolbox           |
|  \\    /   O peration     | Version:  5.x                                   |
|   \\  /    A nd           | Web:      www.OpenFOAM.org                      |
|    \\/     M anipulation  |                                                 |
\*---------------------------------------------------------------------------*/
FoamFile
{
    version     2.0;
    format      ascii;
    class       volScalarField;
    location    "0.2";
    object      gradTx;
}
// * * * * * * * * * * * * * * * * * * * * * * * * * * * * * * * * * * * * * //

dimensions      [0 -1 0 1 0 0 0];

internalField   nonuniform List<scalar> 
2048
(
0.00338938
0.00997925
0.016089
0.0214437
0.0258271
0.0291662
0.0314357
0.0326841
0.0330202
0.0325827
0.0315215
0.0299852
0.0281117
0.0260226
0.0238204
0.0215876
0.0193877
0.0172667
0.0152553
0.0133715
0.0116231
0.0100103
0.00852732
0.00716443
0.00590908
0.00474689
0.00366219
0.00263849
0.0016587
0.000705266
-0.000239796
-0.00119491
-0.00217903
-0.00321169
-0.00431312
-0.0055042
-0.00680642
-0.0082416
-0.00983155
-0.0115974
-0.013559
-0.0157337
-0.018135
-0.0207713
-0.0236431
-0.0267411
-0.0300422
-0.0335062
-0.0370721
-0.0406537
-0.0441375
-0.0473801
-0.0502093
-0.0524266
-0.0538141
-0.0541459
-0.053205
-0.0508051
-0.0468168
-0.0411944
-0.0339978
-0.0254062
-0.0157152
-0.0053194
0.0101702
0.0299254
0.0481999
0.0641907
0.0772469
0.0871332
0.0937973
0.0974019
0.0982838
0.0968668
0.0936063
0.0889496
0.0833093
0.0770475
0.0704675
0.0638129
0.0572699
0.0509725
0.0450097
0.0394326
0.0342624
0.0294976
0.0251202
0.0211
0.0173995
0.0139754
0.0107812
0.00776777
0.00488462
0.00207975
-0.000699976
-0.003509
-0.00640325
-0.0094405
-0.0126805
-0.0161851
-0.020018
-0.0242442
-0.0289284
-0.034134
-0.0399202
-0.0463394
-0.0534334
-0.0612282
-0.0697279
-0.0789073
-0.0887013
-0.0989945
-0.109609
-0.120293
-0.130712
-0.140442
-0.148971
-0.155706
-0.159995
-0.161155
-0.158526
-0.151536
-0.139781
-0.123106
-0.101679
-0.0760305
-0.0470507
-0.0159303
0.0170622
0.0501669
0.0806911
0.107293
0.128884
0.145068
0.155805
0.161417
0.162506
0.159809
0.154106
0.146151
0.136632
0.126147
0.115193
0.104165
0.0933631
0.0830005
0.0732159
0.0640866
0.0556411
0.047872
0.0407452
0.0342089
0.0281991
0.0226438
0.017466
0.012585
0.00791794
0.00337976
-0.00111623
-0.00565876
-0.010339
-0.015251
-0.0204924
-0.0261645
-0.0323719
-0.0392214
-0.0468206
-0.0552746
-0.0646829
-0.0751342
-0.0867006
-0.0994301
-0.113336
-0.128385
-0.144481
-0.161444
-0.178995
-0.196729
-0.214104
-0.230428
-0.244858
-0.25641
-0.263989
-0.266439
-0.262625
-0.251546
-0.232472
-0.205092
-0.169643
-0.126997
-0.0786577
-0.0266454
0.0242847
0.0713504
0.114573
0.152
0.182097
0.204333
0.218739
0.225867
0.22665
0.222192
0.213629
0.20204
0.188395
0.173523
0.158106
0.142683
0.127654
0.113302
0.0998024
0.0872497
0.0756712
0.0650463
0.0553205
0.0464166
0.0382429
0.0306978
0.023674
0.0170598
0.0107409
0.00460066
-0.00147963
-0.00762126
-0.0139487
-0.0205906
-0.0276807
-0.035358
-0.0437671
-0.0530564
-0.063376
-0.0748738
-0.0876908
-0.101955
-0.117772
-0.135218
-0.154325
-0.175062
-0.197315
-0.22086
-0.245329
-0.270187
-0.294699
-0.317918
-0.338676
-0.355594
-0.367118
-0.371584
-0.367324
-0.352832
-0.326963
-0.289166
-0.239692
-0.179733
-0.111452
-0.0377806
0.0320517
0.0940831
0.150762
0.199425
0.238072
0.266081
0.283645
0.291647
0.291447
0.284586
0.272602
0.256922
0.2388
0.219295
0.199264
0.179375
0.160119
0.14183
0.124711
0.108859
0.0942898
0.0809607
0.0687909
0.0576741
0.0474884
0.0381021
0.0293773
0.0211721
0.0133416
0.0057389
-0.00178527
-0.00938286
-0.0172097
-0.025427
-0.0342026
-0.0437123
-0.0541393
-0.0656735
-0.0785081
-0.0928351
-0.108839
-0.12669
-0.146534
-0.16848
-0.192589
-0.218847
-0.247141
-0.27722
-0.308656
-0.340799
-0.372744
-0.403303
-0.430988
-0.454023
-0.470374
-0.477819
-0.474081
-0.457038
-0.425004
-0.377068
-0.313408
-0.235511
-0.146258
-0.0496208
0.0405775
0.118967
0.19015
0.250619
0.297889
0.331316
0.351386
0.359454
0.357431
0.347382
0.331299
0.310975
0.287954
0.263513
0.238676
0.214224
0.190721
0.16854
0.147895
0.128869
0.111454
0.0955772
0.0811233
0.0679527
0.0559114
0.0448368
0.0345605
0.0249108
0.0157133
0.00679183
-0.00203154
-0.0109376
-0.0201114
-0.0297446
-0.0400372
-0.0511999
-0.0634542
-0.0770311
-0.0921679
-0.109102
-0.128065
-0.149272
-0.172912
-0.199139
-0.22805
-0.259665
-0.293893
-0.33048
-0.368964
-0.408609
-0.44836
-0.486804
-0.522149
-0.552216
-0.574468
-0.586075
-0.584058
-0.565537
-0.528118
-0.470362
-0.39225
-0.295523
-0.183859
-0.0624383
0.0500859
0.14663
0.233644
0.306618
0.362563
0.400929
0.422676
0.429814
0.424963
0.410811
0.389854
0.364267
0.335876
0.306167
0.276309
0.247184
0.219412
0.193387
0.169313
0.147246
0.127139
0.108877
0.0923029
0.0772409
0.0635029
0.0508946
0.0392179
0.0282716
0.0178529
0.00775759
-0.0022194
-0.0122857
-0.0226532
-0.0335414
-0.0451805
-0.0578144
-0.0717017
-0.087115
-0.104336
-0.123652
-0.14534
-0.169666
-0.196868
-0.227147
-0.260653
-0.297453
-0.337501
-0.380572
-0.426196
-0.473585
-0.52156
-0.568505
-0.612333
-0.650471
-0.679865
-0.697027
-0.698169
-0.67949
-0.637665
-0.570502
-0.477615
-0.360936
-0.225028
-0.076504
0.0608217
0.177748
0.282206
0.368476
0.433078
0.475721
0.498091
0.503095
0.494243
0.47496
0.448283
0.416774
0.382521
0.347197
0.312101
0.278195
0.246139
0.216327
0.188935
0.163972
0.141335
0.120856
0.102331
0.0855419
0.0702662
0.0562789
0.0433522
0.0312565
0.019761
0.00863519
-0.00235177
-0.0134321
-0.0248421
-0.0368266
-0.049643
-0.0635664
-0.0788919
-0.0959334
-0.11502
-0.136486
-0.160664
-0.187869
-0.218391
-0.252488
-0.290366
-0.332163
-0.377898
-0.42741
-0.48026
-0.535637
-0.59227
-0.648364
-0.701559
-0.748899
-0.786813
-0.811118
-0.817112
-0.799875
-0.75488
-0.678882
-0.570889
-0.432932
-0.27056
-0.0920971
0.0730603
0.213078
0.33688
0.437294
0.510397
0.556408
0.57808
0.579513
0.565325
0.539786
0.506502
0.468395
0.427787
0.386509
0.345966
0.307185
0.270845
0.237321
0.206739
0.179039
0.154048
0.131529
0.111223
0.0928713
0.0762156
0.0610014
0.0469727
0.0338719
0.0214413
0.00942457
-0.00243282
-0.0143856
-0.0266917
-0.0396179
-0.0534462
-0.0684805
-0.0850507
-0.103513
-0.124244
-0.147632
-0.174061
-0.203903
-0.2375
-0.275167
-0.317181
-0.363761
-0.415023
-0.470903
-0.531036
-0.59463
-0.66035
-0.726249
-0.789718
-0.847445
-0.895361
-0.928575
-0.941377
-0.927509
-0.8809
-0.796864
-0.67348
-0.512737
-0.321285
-0.109511
0.0871185
0.253478
0.398824
0.514242
0.595476
0.643626
0.662956
0.659129
0.638117
0.60513
0.564338
0.518973
0.471538
0.423985
0.377806
0.334074
0.293473
0.256336
0.222715
0.192457
0.165297
0.14092
0.119008
0.099255
0.0813735
0.0650809
0.0500943
0.0361286
0.0228996
0.0101266
-0.00246747
-0.0151575
-0.0282199
-0.0419401
-0.0566208
-0.0725918
-0.0902169
-0.109894
-0.132051
-0.157131
-0.185575
-0.21781
-0.254234
-0.295218
-0.341113
-0.392233
-0.448822
-0.510955
-0.578391
-0.650395
-0.725608
-0.801953
-0.876599
-0.945913
-1.00538
-1.04942
-1.07125
-1.06305
-1.01678
-0.925803
-0.786844
-0.601642
-0.378085
-0.129057
0.103365
0.29994
0.46934
0.600569
0.689261
0.737917
0.752891
0.741852
0.712388
0.670729
0.621554
0.568312
0.513615
0.459498
0.407519
0.358785
0.313971
0.273349
0.236863
0.204245
0.175116
0.14907
0.125723
0.104728
0.0857692
0.0685415
0.0527359
0.0380405
0.0241444
0.0107433
-0.00246086
-0.0157607
-0.0294482
-0.043823
-0.0592044
-0.0759446
-0.0944395
-0.11513
-0.138495
-0.16504
-0.195266
-0.229654
-0.268655
-0.312697
-0.3622
-0.417589
-0.479259
-0.547477
-0.622183
-0.702752
-0.787823
-0.87522
-0.961911
-1.04399
-1.11656
-1.17347
-1.20683
-1.20701
-1.16349
-1.06707
-0.912509
-0.701026
-0.441901
-0.151065
0.122231
0.353612
0.549897
0.69762
0.792677
0.839712
0.847901
0.827427
0.787775
0.73623
0.677863
0.616194
0.553851
0.492917
0.435003
0.381244
0.332296
0.288344
0.249199
0.214439
0.183553
0.156031
0.131418
0.109332
0.0894373
0.0714111
0.05492
0.039624
0.0251858
0.0112775
-0.00241798
-0.0162092
-0.0304
-0.0453
-0.0612396
-0.0785893
-0.0977749
-0.11928
-0.143641
-0.171426
-0.203203
-0.239511
-0.280845
-0.327681
-0.380508
-0.439859
-0.506313
-0.580389
-0.662274
-0.751509
-0.846763
-0.945766
-1.04531
-1.14126
-1.22845
-1.30033
-1.34798
-1.3597
-1.32193
-1.22203
-1.05209
-0.812366
-0.513734
-0.175883
0.144227
0.415836
0.64217
0.806836
0.906615
0.949317
0.947832
0.915434
0.863784
0.801204
0.732949
0.662396
0.592085
0.524121
0.460166
0.401384
0.34841
0.301321
0.25975
0.223088
0.190668
0.161863
0.136149
0.113113
0.0924153
0.0737204
0.0566712
0.0408978
0.0260354
0.0117335
-0.00234332
-0.0165171
-0.0311002
-0.0464071
-0.0627729
-0.0805811
-0.100285
-0.122413
-0.147558
-0.176363
-0.20947
-0.247472
-0.290902
-0.340272
-0.396126
-0.459102
-0.529988
-0.609622
-0.698533
-0.796484
-0.902193
-1.0133
-1.12644
-1.23725
-1.34048
-1.42942
-1.49435
-1.5213
-1.49291
-1.39211
-1.20732
-0.937252
-0.594636
-0.203869
0.169947
0.488182
0.748068
0.929757
1.0319
1.06688
1.05234
1.00528
0.939802
0.865168
0.786493
0.706713
0.628173
0.553004
0.482926
0.419148
0.362289
0.312289
0.268557
0.230254
0.196533
0.166641
0.13998
0.116123
0.0947427
0.0755014
0.0580157
0.0418817
0.0267061
0.0121162
-0.0022406
-0.0166981
-0.0315741
-0.0471818
-0.0638534
-0.0819787
-0.102037
-0.1246
-0.150323
-0.179931
-0.21415
-0.253633
-0.298936
-0.350588
-0.40917
-0.475407
-0.550308
-0.635126
-0.730838
-0.837503
-0.953895
-1.07756
-1.20493
-1.33145
-1.45192
-1.55994
-1.64535
-1.69176
-1.67714
-1.57875
-1.38004
-1.07739
-0.685698
-0.235376
0.20009
0.572486
0.869777
1.06801
1.16927
1.19237
1.1609
1.09621
1.0151
0.927602
0.838195
0.748971
0.661997
0.57948
0.503217
0.434488
0.373913
0.321271
0.275678
0.236012
0.201231
0.170444
0.142978
0.118413
0.0964588
0.0767866
0.058981
0.0425972
0.027212
0.0124317
-0.00211261
-0.0167654
-0.0318463
-0.0476621
-0.0645316
-0.0828428
-0.1031
-0.125916
-0.152012
-0.182209
-0.217335
-0.2581
-0.305069
-0.358767
-0.419785
-0.488891
-0.567324
-0.656861
-0.75908
-0.874412
-1.00167
-1.13827
-1.28046
-1.42337
-1.56198
-1.69088
-1.8001
-1.87081
-1.87526
-1.7834
-1.57226
-1.23464
-0.788017
-0.270734
0.235457
0.67089
1.0098
1.22332
1.31928
1.32554
1.27277
1.18727
1.08886
0.987974
0.887801
0.789042
0.693466
0.603484
0.520988
0.447364
0.383273
0.3283
0.281183
0.24045
0.204855
0.173363
0.145217
0.120034
0.0976016
0.0776079
0.0595954
0.0430662
0.0275677
0.0126871
-0.00196109
-0.0167305
-0.0319408
-0.0478859
-0.0648589
-0.0832348
-0.103543
-0.126439
-0.152704
-0.183278
-0.219112
-0.260979
-0.309431
-0.364956
-0.428135
-0.499707
-0.581113
-0.674804
-0.783161
-0.907079
-1.04536
-1.19524
-1.35276
-1.51253
-1.6698
-1.82102
-1.95748
-2.05797
-2.08776
-2.00755
-1.78617
-1.41099
-0.902644
-0.31021
0.276958
0.785884
1.17104
1.39742
1.4823
1.46594
1.38701
1.27739
1.16016
1.04576
0.935134
0.826861
0.722523
0.624981
0.536206
0.457745
0.390368
0.333424
0.285159
0.243664
0.207505
0.175494
0.146771
0.121036
0.0982059
0.0779963
0.059888
0.0433115
0.0277882
0.0128897
-0.00178669
-0.0166038
-0.0318797
-0.0478904
-0.0648869
-0.083216
-0.103437
-0.126246
-0.152479
-0.183216
-0.219567
-0.262381
-0.312155
-0.369315
-0.434413
-0.508045
-0.591777
-0.688942
-0.802991
-0.935394
-1.08484
-1.24829
-1.42164
-1.5986
-1.77448
-1.94894
-2.11603
-2.2525
-2.31502
-2.25266
-2.02415
-1.60862
-1.03051
-0.353957
0.325586
0.920346
1.35682
1.59207
1.65837
1.61285
1.50252
1.3653
1.22802
1.10048
0.98013
0.862431
0.749131
0.643958
0.548855
0.465601
0.395199
0.336704
0.28771
0.245759
0.209285
0.176942
0.147716
0.121463
0.0983018
0.0779817
0.0598888
0.0433562
0.0278883
0.013048
-0.00158902
-0.0163937
-0.0316827
-0.0477117
-0.0646672
-0.0828464
-0.102853
-0.12542
-0.151413
-0.182093
-0.218782
-0.262411
-0.313377
-0.372003
-0.43883
-0.514136
-0.599446
-0.699264
-0.818484
-0.959276
-1.12001
-1.29728
-1.48702
-1.68136
-1.87512
-2.07298
-2.27397
-2.45341
-2.55731
-2.52014
-2.2889
-1.82996
-1.17232
-0.401946
0.382375
1.07757
1.57108
1.80896
1.84712
1.76534
1.61801
1.4496
1.29137
1.1517
1.02287
0.895827
0.773264
0.660431
0.558937
0.470905
0.397768
0.33821
0.288957
0.246845
0.210303
0.177819
0.148131
0.121353
0.0979137
0.077592
0.0596299
0.0432235
0.0278827
0.0131702
-0.0013668
-0.0161067
-0.031367
-0.0473846
-0.0642518
-0.0821835
-0.101857
-0.124041
-0.149585
-0.179978
-0.216829
-0.261174
-0.313233
-0.373173
-0.441616
-0.51826
-0.604276
-0.705761
-0.829549
-0.978674
-1.15084
-1.34207
-1.54894
-1.76085
-1.97087
-2.1913
-2.42916
-2.65946
-2.81479
-2.81126
-2.58343
-2.07775
-1.32837
-0.453857
0.448308
1.26131
1.81844
2.04961
2.04759
1.92231
1.7321
1.52875
1.34909
1.19909
1.06363
0.927194
0.794884
0.67445
0.566474
0.473623
0.398076
0.33803
0.289044
0.247031
0.210665
0.178249
0.14809
0.120733
0.0970586
0.0768543
0.0591459
0.0429364
0.0277845
0.0132655
-0.00111805
-0.0157476
-0.0309456
-0.0469416
-0.0636932
-0.081281
-0.100513
-0.122197
-0.14707
-0.176929
-0.213771
-0.258774
-0.311859
-0.372965
-0.443014
-0.520755
-0.606451
-0.708411
-0.836082
-0.993571
-1.17734
-1.38252
-1.60752
-1.8374
-2.06096
-2.30181
-2.57908
-2.86915
-3.08755
-3.12698
-2.91121
-2.35521
-1.49837
-0.508961
0.524163
1.47574
2.10447
2.31524
2.25809
2.08253
1.84335
1.60106
1.40002
1.24238
1.10293
0.956732
0.813909
0.686107
0.57151
0.473708
0.396117
0.336262
0.288145
0.246419
0.210468
0.178368
0.147669
0.119619
0.0957454
0.0757944
0.0584757
0.0425167
0.027605
0.013343
-0.000840438
-0.0153194
-0.0304274
-0.0464134
-0.0630462
-0.0801872
-0.0988801
-0.119977
-0.143942
-0.172994
-0.209658
-0.25531
-0.309395
-0.371488
-0.443271
-0.522034
-0.606178
-0.707175
-0.837955
-1.00399
-1.19962
-1.41839
-1.66302
-1.91178
-2.14473
-2.40223
-2.72077
-3.08076
-3.37573
-3.46772
-3.27629
-2.66622
-1.68105
-0.565951
0.610262
1.72549
2.43599
2.60654
2.47591
2.24484
1.95034
1.6647
1.44292
1.28145
1.14162
0.98467
0.830164
0.695557
0.574111
0.471089
0.391876
0.33302
0.286467
0.245095
0.209798
0.178335
0.146938
0.118009
0.0939742
0.0744382
0.0576646
0.0419843
0.0273531
0.0134126
-0.000531707
-0.014824
-0.0298155
-0.0458279
-0.0623697
-0.0789433
-0.0970063
-0.117483
-0.140277
-0.168213
-0.204523
-0.25088
-0.305989
-0.368805
-0.442631
-0.522603
-0.603687
-0.701985
-0.834995
-1.01
-1.21789
-1.44929
-1.71571
-1.98531
-2.22168
-2.49005
-2.85077
-3.29236
-3.67964
-3.83298
-3.6835
-3.0157
-1.87378
-0.622771
0.706099
2.01558
2.82149
2.92342
2.69706
2.40837
2.05168
1.71768
1.47651
1.31624
1.18095
1.01123
0.843324
0.70305
0.574372
0.465663
0.385326
0.32843
0.28427
0.243117
0.208721
0.178338
0.145964
0.115881
0.0917364
0.0728113
0.0567671
0.0413553
0.0270335
0.0134855
-0.000190233
-0.0142628
-0.0291057
-0.0452094
-0.0617306
-0.0775806
-0.0949282
-0.114827
-0.136149
-0.162614
-0.19838
-0.245583
-0.301811
-0.36491
-0.441317
-0.523089
-0.599221
-0.692733
-0.82697
-1.01173
-1.23254
-1.47459
-1.76588
-2.06003
-2.29143
-2.56259
-2.96509
-3.50181
-4.00011
-4.22078
-4.13865
-3.41006
-2.07197
-0.67642
0.809799
2.3513
3.27174
3.26465
2.9159
2.57291
2.14613
1.75779
1.49946
1.34678
1.2227
1.03657
0.852839
0.708988
0.572405
0.457277
0.376423
0.32263
0.281879
0.240496
0.207273
0.178612
0.144801
0.113187
0.0890155
0.0709401
0.055851
0.0406396
0.0266465
0.0135756
0.00018426
-0.0136378
-0.0282852
-0.0445774
-0.0612077
-0.0761181
-0.0926633
-0.112142
-0.131631
-0.156212
-0.191216
-0.239515
-0.297071
-0.359706
-0.439508
-0.524285
-0.593027
-0.679272
-0.813562
-1.00934
-1.24423
-1.49325
-1.81371
-2.13893
-2.35374
-2.61697
-3.05913
-3.70678
-4.33893
-4.62687
-4.64885
-3.85787
-2.26822
-0.722793
0.917367
2.73811
3.80059
3.6273
3.12473
2.73939
2.23254
1.78256
1.5104
1.37311
1.26935
1.06068
0.85784
0.714004
0.568343
0.445708
0.365113
0.31576
0.279712
0.237174
0.205446
0.179456
0.143486
0.109849
0.0857892
0.0688509
0.0550017
0.0398369
0.0261864
0.0137007
0.000589816
-0.0129536
-0.0273304
-0.0439445
-0.0608996
-0.0745594
-0.090203
-0.109593
-0.126794
-0.149012
-0.182991
-0.232772
-0.292048
-0.352967
-0.437318
-0.527197
-0.585332
-0.661405
-0.794335
-1.00303
-1.25405
-1.50369
-1.85913
-2.22625
-2.40841
-2.65027
-3.12753
-3.90464
-4.6996
-5.04353
-5.22291
-4.37077
-2.45129
-0.756588
1.02168
3.18144
4.42604
4.00613
3.31326
2.91059
2.30982
1.78921
1.50798
1.3952
1.32424
1.0833
0.85703
0.719075
0.562309
0.43065
0.351336
0.307955
0.278316
0.232996
0.203184
0.181264
0.142031
0.105755
0.0820333
0.0665685
0.0543294
0.0389326
0.0256405
0.0138855
0.00102118
-0.0122193
-0.0262044
-0.043313
-0.060933
-0.0728885
-0.0875024
-0.107384
-0.121703
-0.141013
-0.173625
-0.22544
-0.287127
-0.344307
-0.434749
-0.533119
-0.576312
-0.638901
-0.768712
-0.99301
-1.2637
-1.50359
-1.90159
-2.32782
-2.45509
-2.65955
-3.16415
-4.09233
-5.08838
-5.4581
-5.87181
-4.96466
-2.6047
-0.771352
1.11118
3.68642
5.17156
4.3927
3.46807
3.09208
2.37677
1.77456
1.49091
1.41276
1.3919
1.10376
0.848551
0.725681
0.55439
0.411684
0.335036
0.299322
0.278414
0.227667
0.20036
0.184555
0.140402
0.10075
0.0777274
0.0641134
0.0539774
0.0378902
0.024989
0.0141645
0.00146851
-0.0114518
-0.0248543
-0.04267
-0.0614745
-0.0710657
-0.0844672
-0.105779
-0.11641
-0.132208
-0.162993
-0.217587
-0.282859
-0.333128
-0.431648
-0.543727
-0.566037
-0.61151
-0.735933
-0.979426
-1.27577
-1.48964
-1.93986
-2.45156
-2.49308
-2.64206
-3.16189
-4.26601
-5.5158
-5.85085
-6.60934
-5.66127
-2.70489
-0.759759
1.16821
4.25759
6.06784
4.7743
3.57191
3.29329
2.43178
1.73494
1.45809
1.42505
1.47836
1.12077
0.829841
0.736003
0.544569
0.388264
0.316186
0.289911
0.280964
0.220711
0.196763
0.190027
0.138504
0.0946387
0.0728629
0.0614957
0.0541328
0.0366432
0.024204
0.0145868
0.00191586
-0.0106793
-0.0232091
-0.0419807
-0.0627458
-0.0690239
-0.0809369
-0.105122
-0.110946
-0.122595
-0.150923
-0.209242
-0.280027
-0.318576
-0.427639
-0.561192
-0.554398
-0.579
-0.69503
-0.962252
-1.2941
-1.45731
-1.97164
-2.60808
-2.52087
-2.59553
-3.11266
-4.42051
-5.99874
-6.19238
-7.45282
-6.49003
-2.71898
-0.714239
1.16702
4.89851
7.15473
5.13262
3.60309
3.52902
2.47234
1.66612
1.4088
1.43053
1.59156
1.13221
0.797468
0.753175
0.532637
0.35969
0.294815
0.279669
0.287238
0.211405
0.192082
0.198602
0.136143
0.0871781
0.067454
0.0587065
0.0550406
0.0350841
0.0232501
0.0152203
0.00233943
-0.00994587
-0.0211766
-0.0411792
-0.0650408
-0.0666629
-0.0766641
-0.105865
-0.105303
-0.112184
-0.13718
-0.200364
-0.279737
-0.29948
-0.422043
-0.588332
-0.541001
-0.54121
-0.644799
-0.941133
-1.3242
-1.40053
-1.99314
-2.81143
-2.53563
-2.51848
-3.00726
-4.54843
-6.56321
-6.4403
-8.424
-7.49041
-2.6019
-0.628078
1.0713
5.61127
8.48372
5.44214
3.53466
3.8211
2.49432
1.56331
1.34291
1.42646
1.7419
1.13483
0.746957
0.781599
0.518062
0.325104
0.271053
0.268372
0.298917
0.198712
0.185888
0.211496
0.132991
0.0780816
0.0615506
0.0557046
0.05702
0.0330498
0.0220857
0.016158
0.00270559
-0.00931621
-0.0186419
-0.0401565
-0.0687471
-0.0638463
-0.0712894
-0.108602
-0.0994155
-0.101018
-0.121472
-0.190803
-0.283525
-0.274299
-0.413781
-0.62879
-0.525023
-0.498138
-0.583788
-0.915148
-1.37384
-1.31143
-1.99858
-3.08005
-2.53239
-2.41073
-2.83546
-4.6389
-7.24779
-6.53514
-9.55016
-8.71467
-2.29292
-0.497144
0.831439
6.39609
10.1206
5.66819
3.33373
4.20035
2.491
1.42117
1.2612
1.40834
1.94285
1.12386
0.672604
0.8273
0.499811
0.283481
0.245188
0.255547
0.318209
0.181197
0.177615
0.230295
0.128536
0.0670223
0.0552545
0.0523995
0.0604859
0.0303055
0.0206653
0.0175239
0.00296863
-0.00888122
-0.0154659
-0.038745
-0.07437
-0.0603966
-0.0643108
-0.114107
-0.0931285
-0.0891858
-0.103442
-0.180233
-0.293481
-0.241051
-0.401251
-0.68725
-0.505036
-0.450037
-0.510302
-0.882495
-1.45363
-1.17996
-1.97953
-3.43783
-2.50309
-2.27404
-2.58607
-4.67577
-8.10806
-6.39557
-10.8653
-10.231
-1.71151
-0.322377
0.381382
7.25068
12.1485
5.7648
2.96073
4.70885
2.45178
1.23389
1.16578
1.36921
2.21169
1.09268
0.567298
0.898344
0.476117
0.233639
0.217729
0.240352
0.347986
0.156924
0.166544
0.257034
0.122016
0.0536428
0.0487377
0.0486274
0.065973
0.0265241
0.018943
0.0194793
0.00306841
-0.00876356
-0.0114863
-0.0367009
-0.082559
-0.0560925
-0.0550498
-0.123384
-0.0861622
-0.0768518
-0.0826764
-0.16808
-0.3124
-0.197258
-0.382192
-0.769688
-0.47877
-0.39756
-0.422435
-0.840081
-1.5778
-0.993637
-1.92418
-3.91544
-2.43528
-2.11284
-2.24719
-4.63527
-9.22184
-5.91276
-12.4118
-12.127
-0.752469
-0.113174
)
;

boundaryField
{
    left
    {
        type            calculated;
        value           uniform 0;
    }
    right
    {
        type            calculated;
        value           uniform 0;
    }
    interface
    {
        type            calculated;
        value           nonuniform List<scalar> 
64
(
0.381382
7.25068
12.1485
5.7648
2.96073
4.70885
2.45178
1.23389
1.16578
1.36921
2.21169
1.09268
0.567298
0.898344
0.476117
0.233639
0.217729
0.240352
0.347986
0.156924
0.166544
0.257034
0.122016
0.0536428
0.0487377
0.0486274
0.065973
0.0265241
0.018943
0.0194793
0.00306841
-0.00876356
-0.0114863
-0.0367009
-0.082559
-0.0560925
-0.0550498
-0.123384
-0.0861622
-0.0768518
-0.0826764
-0.16808
-0.3124
-0.197258
-0.382192
-0.769688
-0.47877
-0.39756
-0.422435
-0.840081
-1.5778
-0.993637
-1.92418
-3.91544
-2.43528
-2.11284
-2.24719
-4.63527
-9.22184
-5.91276
-12.4118
-12.127
-0.752469
-0.113174
)
;
    }
    bottom
    {
        type            calculated;
        value           nonuniform List<scalar> 
64
(
0.00338938
0.00997925
0.016089
0.0214437
0.0258271
0.0291662
0.0314357
0.0326841
0.0330202
0.0325827
0.0315215
0.0299852
0.0281117
0.0260226
0.0238204
0.0215876
0.0193877
0.0172667
0.0152553
0.0133715
0.0116231
0.0100103
0.00852732
0.00716443
0.00590908
0.00474689
0.00366219
0.00263849
0.0016587
0.000705266
-0.000239796
-0.00119491
-0.00217903
-0.00321169
-0.00431312
-0.0055042
-0.00680642
-0.0082416
-0.00983155
-0.0115974
-0.013559
-0.0157337
-0.018135
-0.0207713
-0.0236431
-0.0267411
-0.0300422
-0.0335062
-0.0370721
-0.0406537
-0.0441375
-0.0473801
-0.0502093
-0.0524266
-0.0538141
-0.0541459
-0.053205
-0.0508051
-0.0468168
-0.0411944
-0.0339978
-0.0254062
-0.0157152
-0.0053194
)
;
    }
    defaultFaces
    {
        type            empty;
    }
}


// ************************************************************************* //
