/*--------------------------------*- C++ -*----------------------------------*\
| =========                 |                                                 |
| \\      /  F ield         | OpenFOAM: The Open Source CFD Toolbox           |
|  \\    /   O peration     | Version:  5.x                                   |
|   \\  /    A nd           | Web:      www.OpenFOAM.org                      |
|    \\/     M anipulation  |                                                 |
\*---------------------------------------------------------------------------*/
FoamFile
{
    version     2.0;
    format      ascii;
    class       volScalarField;
    location    "0.2";
    object      T;
}
// * * * * * * * * * * * * * * * * * * * * * * * * * * * * * * * * * * * * * //

dimensions      [0 0 0 1 0 0 0];

internalField   nonuniform List<scalar> 
2048
(
9.7878
9.7879
9.78811
9.7884
9.78878
9.78921
9.78969
9.79019
9.79071
9.79123
9.79173
9.79221
9.79267
9.79309
9.79348
9.79383
9.79415
9.79444
9.79469
9.79492
9.79511
9.79528
9.79542
9.79555
9.79565
9.79573
9.7958
9.79585
9.79588
9.7959
9.7959
9.79589
9.79586
9.79582
9.79576
9.79569
9.79559
9.79547
9.79533
9.79517
9.79497
9.79474
9.79448
9.79418
9.79383
9.79344
9.79299
9.7925
9.79195
9.79134
9.79068
9.78996
9.7892
9.78839
9.78756
9.78671
9.78587
9.78505
9.78428
9.78358
9.78299
9.78252
9.7822
9.78203
9.37261
9.37292
9.37354
9.37443
9.37555
9.37684
9.37827
9.37977
9.38131
9.38285
9.38434
9.38577
9.38712
9.38837
9.38953
9.39058
9.39152
9.39237
9.39312
9.39377
9.39435
9.39484
9.39527
9.39563
9.39593
9.39617
9.39637
9.39651
9.39661
9.39666
9.39667
9.39664
9.39656
9.39644
9.39627
9.39604
9.39576
9.39542
9.395
9.39451
9.39394
9.39327
9.39249
9.3916
9.39058
9.38942
9.38811
9.38665
9.38502
9.38322
9.38126
9.37914
9.37687
9.37448
9.372
9.36948
9.36697
9.36453
9.36223
9.36016
9.35838
9.35698
9.35601
9.35551
8.9754
8.97593
8.97697
8.97845
8.98032
8.98248
8.98485
8.98735
8.9899
8.99243
8.99489
8.99725
8.99946
9.00151
9.0034
9.00511
9.00666
9.00803
9.00925
9.01032
9.01125
9.01206
9.01275
9.01333
9.01382
9.01421
9.01453
9.01476
9.01492
9.01501
9.01502
9.01497
9.01485
9.01465
9.01437
9.01401
9.01355
9.013
9.01233
9.01153
9.0106
9.00951
9.00825
9.0068
9.00515
9.00326
9.00113
8.99875
8.99609
8.99315
8.98994
8.98646
8.98274
8.97881
8.97473
8.97056
8.9664
8.96235
8.95854
8.95509
8.95213
8.94979
8.94816
8.94733
8.5953
8.59605
8.59753
8.59964
8.60228
8.60533
8.60866
8.61216
8.61572
8.61924
8.62266
8.62592
8.62898
8.63181
8.6344
8.63675
8.63886
8.64074
8.6424
8.64386
8.64513
8.64622
8.64716
8.64795
8.64861
8.64914
8.64957
8.64988
8.6501
8.65022
8.65024
8.65017
8.65001
8.64974
8.64936
8.64887
8.64826
8.64751
8.6466
8.64553
8.64426
8.64278
8.64107
8.6391
8.63685
8.63428
8.63138
8.62812
8.62448
8.62045
8.61603
8.61124
8.6061
8.60066
8.59499
8.58918
8.58337
8.5777
8.57235
8.56749
8.56331
8.56
8.55769
8.55651
8.23146
8.23246
8.2344
8.23717
8.24063
8.24461
8.24895
8.25348
8.25806
8.26259
8.26696
8.2711
8.27498
8.27857
8.28184
8.28479
8.28744
8.2898
8.29187
8.29369
8.29528
8.29664
8.29781
8.29879
8.29961
8.30027
8.3008
8.30119
8.30146
8.30161
8.30164
8.30155
8.30135
8.30102
8.30055
8.29995
8.29919
8.29826
8.29713
8.2958
8.29423
8.2924
8.29027
8.28782
8.28501
8.2818
8.27817
8.27408
8.26951
8.26443
8.25886
8.25279
8.24625
8.23932
8.23207
8.22462
8.21713
8.2098
8.20285
8.19652
8.19107
8.18673
8.18371
8.18216
7.8831
7.88437
7.88682
7.89031
7.89465
7.89962
7.90501
7.9106
7.91624
7.92177
7.92709
7.93212
7.93681
7.94112
7.94505
7.94858
7.95174
7.95454
7.95701
7.95916
7.96104
7.96265
7.96402
7.96518
7.96615
7.96693
7.96755
7.96801
7.96832
7.9685
7.96854
7.96844
7.9682
7.96781
7.96727
7.96656
7.96567
7.96457
7.96326
7.96169
7.95985
7.95769
7.95518
7.95229
7.94896
7.94516
7.94085
7.93598
7.93052
7.92445
7.91775
7.91044
7.90254
7.89412
7.88528
7.87617
7.86697
7.85792
7.84929
7.84141
7.83459
7.82915
7.82536
7.82341
7.54946
7.55103
7.55405
7.55833
7.56363
7.56966
7.57616
7.58287
7.58959
7.59615
7.60243
7.60833
7.61381
7.61883
7.62338
7.62746
7.6311
7.63432
7.63714
7.63961
7.64175
7.64358
7.64515
7.64647
7.64756
7.64845
7.64915
7.64968
7.65004
7.65024
7.65028
7.65017
7.64989
7.64946
7.64885
7.64805
7.64704
7.64581
7.64432
7.64255
7.64045
7.638
7.63515
7.63185
7.62805
7.62371
7.61876
7.61316
7.60686
7.59984
7.59207
7.58354
7.5743
7.56441
7.55397
7.54316
7.53219
7.52134
7.51096
7.50142
7.49313
7.48649
7.48185
7.47946
7.22982
7.23172
7.23538
7.24054
7.24689
7.25408
7.26176
7.26964
7.27748
7.28509
7.29232
7.2991
7.30535
7.31105
7.3162
7.3208
7.32489
7.3285
7.33165
7.3344
7.33678
7.33882
7.34055
7.34201
7.34323
7.34421
7.34498
7.34556
7.34596
7.34618
7.34623
7.34611
7.34581
7.34533
7.34466
7.34378
7.34267
7.34132
7.33968
7.33772
7.33541
7.3327
7.32954
7.32588
7.32165
7.3168
7.31127
7.30499
7.29791
7.28998
7.28117
7.27148
7.26091
7.24955
7.23751
7.22496
7.21216
7.19943
7.18717
7.17584
7.16595
7.158
7.15242
7.14954
6.92349
6.92577
6.93015
6.9363
6.94382
6.95225
6.9612
6.97032
6.97931
6.98798
6.99618
7.00381
7.01082
7.01718
7.0229
7.02799
7.0325
7.03646
7.03991
7.04292
7.04551
7.04773
7.04962
7.05121
7.05252
7.05359
7.05443
7.05506
7.05549
7.05573
7.05578
7.05565
7.05533
7.05482
7.05409
7.05314
7.05195
7.05049
7.04872
7.0466
7.0441
7.04116
7.03773
7.03374
7.02913
7.02383
7.01777
7.01086
7.00305
6.99427
6.98447
6.97363
6.96177
6.94895
6.93529
6.92097
6.90627
6.89155
6.87729
6.86403
6.85238
6.84298
6.83636
6.83294
6.6298
6.63253
6.63772
6.64499
6.65379
6.6636
6.67391
6.68431
6.69451
6.70426
6.71342
6.72189
6.72963
6.73663
6.74288
6.74843
6.75332
6.7576
6.76133
6.76456
6.76735
6.76973
6.77175
6.77345
6.77485
6.77599
6.77689
6.77756
6.77802
6.77827
6.77833
6.7782
6.77786
6.77731
6.77655
6.77554
6.77428
6.77273
6.77085
6.7686
6.76594
6.7628
6.75913
6.75485
6.7499
6.74419
6.73765
6.73017
6.72168
6.71209
6.70135
6.68942
6.67629
6.66203
6.64673
6.63061
6.61394
6.59713
6.58072
6.56536
6.55179
6.54077
6.53299
6.52895
6.34812
6.35135
6.35749
6.36602
6.37626
6.38756
6.39932
6.41109
6.42251
6.43335
6.44347
6.45277
6.46123
6.46882
6.47558
6.48156
6.4868
6.49137
6.49534
6.49877
6.50172
6.50424
6.50638
6.50817
6.50965
6.51085
6.51179
6.5125
6.51298
6.51325
6.51332
6.51318
6.51283
6.51226
6.51146
6.51041
6.50908
6.50746
6.50549
6.50313
6.50033
6.49703
6.49315
6.48863
6.48338
6.47731
6.47033
6.46233
6.45322
6.44289
6.43126
6.41827
6.40391
6.38821
6.37129
6.35332
6.33461
6.31561
6.2969
6.27925
6.26355
6.25073
6.24164
6.23692
6.07783
6.08165
6.08888
6.09884
6.11068
6.12361
6.13692
6.1501
6.16278
6.17472
6.18579
6.19591
6.20504
6.21321
6.22045
6.22681
6.23236
6.23719
6.24137
6.24498
6.24807
6.25072
6.25295
6.25482
6.25637
6.25762
6.2586
6.25933
6.25984
6.26012
6.26019
6.26004
6.25968
6.25909
6.25827
6.25718
6.25581
6.25413
6.25208
6.24964
6.24673
6.24329
6.23924
6.23451
6.229
6.22262
6.21526
6.2068
6.19712
6.1861
6.17363
6.15964
6.14408
6.12697
6.10841
6.08858
6.06778
6.04646
6.02529
6.00515
5.9871
5.97227
5.96171
5.95622
5.81834
5.82285
5.83134
5.84292
5.85655
5.87125
5.88622
5.90087
5.91483
5.92786
5.93986
5.95077
5.96056
5.96927
5.97694
5.98365
5.98949
5.99454
5.9989
6.00266
6.00587
6.00862
6.01093
6.01287
6.01447
6.01576
6.01677
6.01753
6.01805
6.01834
6.01842
6.01827
6.0179
6.0173
6.01645
6.01534
6.01393
6.0122
6.01011
6.00759
6.00459
6.00104
5.99686
5.99195
5.98623
5.97957
5.97188
5.96301
5.95283
5.94118
5.92794
5.91299
5.89627
5.87779
5.85761
5.8359
5.81294
5.7892
5.7654
5.74255
5.7219
5.70482
5.69261
5.68624
5.56909
5.5744
5.58434
5.59777
5.6134
5.63002
5.64674
5.66291
5.67815
5.69228
5.70519
5.71685
5.72727
5.73648
5.74455
5.75158
5.75765
5.7629
5.76741
5.77129
5.77461
5.77743
5.77982
5.78181
5.78344
5.78477
5.7858
5.78658
5.78711
5.78741
5.78749
5.78734
5.78697
5.78636
5.78549
5.78436
5.78293
5.78117
5.77904
5.77648
5.77342
5.76978
5.76549
5.76044
5.75453
5.74765
5.73968
5.73046
5.71983
5.70762
5.69366
5.67781
5.65998
5.64016
5.61838
5.59478
5.56963
5.54337
5.51676
5.49096
5.46743
5.44783
5.43376
5.4264
5.3295
5.33576
5.34739
5.36294
5.38077
5.39948
5.41803
5.43576
5.45229
5.46748
5.48128
5.49367
5.50468
5.51436
5.52279
5.53008
5.53637
5.54177
5.54641
5.55038
5.55378
5.55667
5.55911
5.56114
5.56281
5.56415
5.56521
5.566
5.56654
5.56685
5.56693
5.56678
5.5664
5.56579
5.56492
5.56377
5.56233
5.56055
5.55839
5.5558
5.5527
5.54901
5.54463
5.53947
5.53342
5.52635
5.51814
5.50863
5.49762
5.4849
5.47029
5.4536
5.43472
5.41359
5.39024
5.36478
5.3374
5.30852
5.27894
5.24992
5.22321
5.20079
5.18462
5.17616
5.09906
5.10642
5.12003
5.13798
5.15826
5.17921
5.19968
5.21898
5.23678
5.25301
5.26766
5.28075
5.29231
5.30242
5.31117
5.3187
5.32515
5.33068
5.33541
5.33947
5.34293
5.34587
5.34835
5.35041
5.3521
5.35346
5.35452
5.35532
5.35587
5.35618
5.35626
5.35612
5.35574
5.35512
5.35424
5.35309
5.35164
5.34986
5.34769
5.34509
5.34196
5.33824
5.33381
5.32857
5.3224
5.31519
5.30679
5.29703
5.2857
5.27256
5.25735
5.23989
5.22
5.19761
5.17274
5.14543
5.11583
5.08426
5.05152
5.01902
4.98878
4.9632
4.94469
4.93499
4.87724
4.8859
4.9018
4.92249
4.94547
4.96882
4.99128
5.01216
5.0312
5.04841
5.06388
5.07764
5.08972
5.10022
5.10925
5.11697
5.12356
5.12917
5.13397
5.13808
5.14159
5.14457
5.14707
5.14915
5.15086
5.15222
5.15329
5.15409
5.15465
5.15496
5.15505
5.15491
5.15453
5.15391
5.15303
5.15188
5.15043
5.14865
5.14649
5.14389
5.14076
5.13702
5.13256
5.12727
5.12102
5.11369
5.10515
5.0952
5.08362
5.07011
5.05439
5.03621
5.01538
4.99178
4.96542
4.93633
4.90452
4.8702
4.83413
4.79786
4.76373
4.7346
4.71346
4.7024
4.66354
4.67371
4.6923
4.71611
4.74205
4.76794
4.79245
4.81489
4.83512
4.85327
4.86951
4.8839
4.89646
4.90731
4.91658
4.92446
4.93113
4.93681
4.94166
4.9458
4.94934
4.95234
4.95486
4.95696
4.95866
4.96003
4.9611
4.9619
4.96245
4.96277
4.96286
4.96272
4.96235
4.96173
4.96086
4.95971
4.95827
4.9565
4.95435
4.95176
4.94866
4.94493
4.94046
4.93513
4.92883
4.92142
4.91277
4.90269
4.89091
4.87711
4.86094
4.84211
4.8204
4.79564
4.76785
4.73704
4.70307
4.66598
4.6264
4.58607
4.54765
4.51454
4.49046
4.4779
4.45746
4.46941
4.49113
4.5185
4.54766
4.57623
4.60283
4.62679
4.64813
4.66714
4.68412
4.69911
4.71211
4.72327
4.73275
4.74074
4.74747
4.75317
4.75804
4.7622
4.76575
4.76877
4.77131
4.7734
4.7751
4.77646
4.77753
4.77832
4.77888
4.7792
4.77929
4.77915
4.77878
4.77817
4.7773
4.77617
4.77474
4.77298
4.77086
4.76831
4.76524
4.76153
4.75707
4.75174
4.74541
4.73794
4.72922
4.71906
4.70716
4.69314
4.67658
4.65717
4.63464
4.60877
4.57961
4.54718
4.51113
4.47127
4.42803
4.3833
4.34017
4.30257
4.27524
4.26106
4.25852
4.27253
4.29794
4.32936
4.36199
4.39335
4.42206
4.44748
4.46984
4.48963
4.50731
4.52287
4.53628
4.54771
4.55736
4.56542
4.57216
4.57786
4.58272
4.58689
4.59044
4.59347
4.59601
4.5981
4.59979
4.60113
4.60219
4.60298
4.60353
4.60385
4.60394
4.60381
4.60345
4.60285
4.60199
4.60086
4.59945
4.59772
4.59563
4.59312
4.5901
4.58644
4.58201
4.57669
4.57036
4.56285
4.55408
4.5439
4.53194
4.51777
4.50089
4.48098
4.45769
4.43074
4.40027
4.36634
4.32834
4.28574
4.23868
4.18926
4.14096
4.09828
4.06736
4.05146
4.06627
4.08265
4.11239
4.14842
4.18474
4.21898
4.24982
4.27659
4.29985
4.32034
4.33868
4.35481
4.36858
4.38024
4.39002
4.3981
4.40482
4.41048
4.41533
4.41948
4.42303
4.42606
4.4286
4.43068
4.43234
4.43367
4.43471
4.4355
4.43604
4.43636
4.43646
4.43633
4.43598
4.43538
4.43453
4.43341
4.43202
4.43032
4.42827
4.42582
4.42287
4.41927
4.41489
4.4096
4.40328
4.39575
4.38696
4.37681
4.36487
4.35062
4.33349
4.31313
4.28917
4.26116
4.22942
4.19414
4.15435
4.10912
4.05808
4.00363
3.94971
3.90124
3.86639
3.84871
3.88026
3.89933
3.93418
3.97546
4.01564
4.05283
4.08579
4.11378
4.13781
4.15887
4.17786
4.19454
4.20863
4.22049
4.23036
4.23843
4.24509
4.25067
4.25549
4.25963
4.26315
4.26618
4.26872
4.27077
4.27241
4.27371
4.27474
4.27551
4.27605
4.27637
4.27647
4.27635
4.27601
4.27542
4.27457
4.27347
4.27211
4.27044
4.26844
4.26606
4.26318
4.25966
4.25534
4.2501
4.24381
4.23627
4.22748
4.2174
4.20555
4.19131
4.17398
4.15325
4.12869
4.09964
4.06665
4.03021
3.98884
3.94112
3.88595
3.82613
3.76617
3.71102
3.67193
3.65247
3.70006
3.72213
3.76305
3.8103
3.85441
3.89458
3.92967
3.9587
3.98334
4.00484
4.02448
4.04174
4.05608
4.0681
4.07805
4.08605
4.0926
4.09809
4.10286
4.10697
4.11046
4.11349
4.11603
4.11805
4.11966
4.12092
4.12193
4.1227
4.12322
4.12354
4.12364
4.12353
4.1232
4.12262
4.12179
4.1207
4.11936
4.11773
4.11577
4.11347
4.11069
4.10727
4.10302
4.09784
4.09161
4.08405
4.07527
4.06533
4.05362
4.03948
4.022
4.00097
3.97592
3.94578
3.91155
3.87418
3.83147
3.78152
3.72203
3.65651
3.59013
3.52718
3.48357
3.46243
3.52527
3.55058
3.59875
3.65282
3.70077
3.74394
3.78117
3.81101
3.8361
3.85787
3.87819
3.89608
3.91058
3.92273
3.93274
3.94061
3.94703
3.95238
3.95711
3.96119
3.96463
3.96766
3.97021
3.97219
3.97375
3.97497
3.97596
3.97672
3.97723
3.97755
3.97766
3.97755
3.97723
3.97667
3.97584
3.97476
3.97346
3.97186
3.96995
3.96775
3.96507
3.96177
3.95759
3.95249
3.94635
3.93875
3.92996
3.92022
3.90874
3.8948
3.87719
3.85592
3.83053
3.79924
3.76369
3.72568
3.68191
3.63009
3.56607
3.49449
3.42148
3.34922
3.30092
3.27834
3.35552
3.38419
3.44109
3.50296
3.55444
3.60061
3.64005
3.67038
3.69575
3.71758
3.73866
3.75724
3.77181
3.78405
3.79412
3.80181
3.80805
3.81322
3.81792
3.82196
3.82533
3.82838
3.83094
3.83287
3.83437
3.83555
3.83652
3.83727
3.83777
3.83808
3.8382
3.8381
3.83779
3.83725
3.83642
3.83534
3.83409
3.83253
3.83066
3.82856
3.82601
3.82285
3.81873
3.81372
3.8077
3.80005
3.79123
3.78176
3.77056
3.75694
3.73921
3.71775
3.69222
3.65965
3.62265
3.58439
3.53983
3.48665
3.41781
3.33979
3.2602
3.17657
3.12362
3.09997
3.1905
3.22243
3.28992
3.36074
3.41511
3.46428
3.50607
3.53646
3.56198
3.58359
3.60558
3.62497
3.63943
3.65175
3.6619
3.66932
3.67536
3.6803
3.68498
3.689
3.69227
3.69535
3.69793
3.69979
3.70124
3.70235
3.70332
3.70405
3.70453
3.70485
3.70497
3.70488
3.70458
3.70406
3.70323
3.70216
3.70095
3.69942
3.6976
3.69562
3.69319
3.69019
3.68615
3.68122
3.67539
3.66764
3.65873
3.64963
3.63876
3.6256
3.60773
3.58611
3.56074
3.52669
3.488
3.44997
3.40489
3.35109
3.277
3.19208
3.10644
3.00858
2.95129
2.92718
3.02993
3.06466
3.14513
3.22627
3.2824
3.33464
3.37903
3.40892
3.43449
3.45551
3.47863
3.49901
3.51313
3.52552
3.5358
3.54285
3.54867
3.55332
3.55802
3.56202
3.56514
3.56828
3.57091
3.57267
3.57405
3.5751
3.57606
3.57678
3.57724
3.57756
3.57768
3.57761
3.57733
3.57683
3.57599
3.57491
3.57377
3.57227
3.57047
3.56863
3.56634
3.56354
3.55954
3.5547
3.54913
3.54121
3.53213
3.52352
3.51302
3.50053
3.48242
3.46066
3.43587
3.40004
3.35925
3.32213
3.27669
3.22332
3.14338
3.05095
2.96054
2.84441
2.78362
2.75988
2.87364
2.91014
3.00669
3.09976
3.15588
3.21139
3.2588
3.28738
3.31302
3.33294
3.35755
3.37914
3.39257
3.40508
3.41557
3.42209
3.42771
3.43197
3.43677
3.44075
3.44366
3.4469
3.4496
3.45123
3.45256
3.45351
3.45448
3.4552
3.45563
3.45596
3.45608
3.45602
3.45575
3.45529
3.45444
3.45333
3.45228
3.4508
3.44899
3.44733
3.44516
3.44262
3.43862
3.43387
3.42867
3.4205
3.41113
3.40318
3.39304
3.38146
3.36297
3.34102
3.31743
3.2794
3.23592
3.20063
3.15481
3.10336
3.01667
2.9159
2.82316
2.683
2.62035
2.59803
2.72154
2.758
2.87461
2.98159
3.03501
3.09419
3.14529
3.17145
3.19736
3.21547
3.24206
3.26521
3.27744
3.29013
3.30098
3.30677
3.31222
3.31599
3.32096
3.32496
3.32756
3.33097
3.33377
3.33522
3.3365
3.33733
3.33833
3.33905
3.33943
3.33977
3.3399
3.33985
3.33959
3.33919
3.3383
3.33715
3.33622
3.33476
3.33291
3.33147
3.32941
3.32718
3.32315
3.31844
3.31379
3.30525
3.2954
3.28834
3.27849
3.26819
3.24908
3.22681
3.20531
3.16453
3.11745
3.08529
3.03875
2.99131
2.89661
2.78621
2.69535
2.52296
2.46128
2.44165
2.57367
2.60715
2.74902
2.87226
2.91909
2.98272
3.0385
3.06067
3.08735
3.10264
3.13193
3.15707
3.16739
3.18041
3.19182
3.1966
3.20198
3.20507
3.21036
3.21441
3.21657
3.22022
3.22318
3.22438
3.22562
3.2263
3.22736
3.22808
3.2284
3.22877
3.2289
3.22886
3.22861
3.22828
3.22735
3.22613
3.22536
3.2239
3.22197
3.22079
3.21881
3.217
3.21285
3.20814
3.20427
3.19521
3.18462
3.1788
3.16906
3.16056
3.14046
3.11762
3.09948
3.05517
3.00323
2.97603
2.92789
2.88742
2.78292
2.66093
2.5787
2.36249
2.30637
2.29083
2.43025
2.45623
2.63013
2.7725
2.80726
2.87668
2.93852
2.95452
2.98293
2.99393
3.02694
3.05465
3.06206
3.07567
3.08791
3.09129
3.09677
3.09895
3.10476
3.10889
3.11042
3.11444
3.11762
3.11846
3.11971
3.12019
3.12135
3.12208
3.1223
3.12272
3.12284
3.12282
3.12257
3.12233
3.12136
3.12001
3.11947
3.118
3.1159
3.11509
3.11312
3.11186
3.10748
3.10268
3.09995
3.09015
3.07847
3.07436
3.06441
3.05842
3.03683
3.01299
2.99996
2.95113
2.89253
2.87291
2.82146
2.79209
2.67534
2.53872
2.47548
2.19917
2.15576
2.14569
2.29167
2.30359
2.51826
2.68323
2.69841
2.77576
2.84556
2.85237
2.88412
2.8888
2.9269
2.95792
2.96105
2.97565
2.98912
2.99053
2.99643
2.99733
3.00394
3.0082
3.00884
3.01341
3.01687
3.01722
3.01855
3.01874
3.02007
3.02081
3.0209
3.0214
3.02151
3.02149
3.02123
3.02114
3.02009
3.01856
3.01833
3.01684
3.01448
3.01414
3.01208
3.01156
3.00682
3.0018
3.00066
2.98985
2.97661
2.97489
2.96418
2.96169
2.93793
2.91238
2.90688
2.85225
2.78452
2.77615
2.71849
2.70593
2.57364
2.41774
2.38887
2.02988
2.0099
2.00636
)
;

boundaryField
{
    left
    {
        type            zeroGradient;
    }
    right
    {
        type            zeroGradient;
    }
    interface
    {
        type            fixedValue;
        value           nonuniform List<scalar> 
64
(
2.22364
2.22364
2.46491
2.64358
2.64358
2.72665
2.80181
2.80181
2.83656
2.83656
2.87822
2.9114
2.9114
2.92682
2.94119
2.94119
2.94754
2.94754
2.95475
2.95912
2.95912
2.96408
2.96774
2.96774
2.96916
2.96916
2.97061
2.97136
2.97136
2.97191
2.97201
2.97201
2.97173
2.97173
2.97063
2.96896
2.96896
2.96744
2.96488
2.96488
2.96268
2.96268
2.95766
2.95241
2.95241
2.94093
2.92654
2.92654
2.915
2.915
2.88966
2.86271
2.86271
2.8043
2.73018
2.73018
2.667
2.667
2.52458
2.35527
2.35527
1.93818
1.93818
1.93818
)
;
    }
    bottom
    {
        type            fixedValue;
        value           uniform 10;
    }
    defaultFaces
    {
        type            empty;
    }
}


// ************************************************************************* //
