/*--------------------------------*- C++ -*----------------------------------*\
| =========                 |                                                 |
| \\      /  F ield         | OpenFOAM: The Open Source CFD Toolbox           |
|  \\    /   O peration     | Version:  5.x                                   |
|   \\  /    A nd           | Web:      www.OpenFOAM.org                      |
|    \\/     M anipulation  |                                                 |
\*---------------------------------------------------------------------------*/
FoamFile
{
    version     2.0;
    format      ascii;
    class       volScalarField;
    location    "4";
    object      gradTx;
}
// * * * * * * * * * * * * * * * * * * * * * * * * * * * * * * * * * * * * * //

dimensions      [0 -1 0 1 0 0 0];

internalField   nonuniform List<scalar> 
6300
(
-49.2134
-49.194
-49.155
-49.0964
-49.018
-48.9197
-48.8013
-48.6632
-48.5056
-48.3292
-48.1351
-47.9247
-47.6996
-47.4614
-47.2116
-49.2331
-49.2137
-49.1749
-49.1165
-49.0382
-48.9399
-48.8214
-48.6829
-48.5246
-48.3472
-48.1517
-47.9397
-47.713
-47.4733
-47.2226
-49.2724
-49.2532
-49.2147
-49.1566
-49.0786
-48.9805
-48.8619
-48.7226
-48.563
-48.3835
-48.1852
-47.9698
-47.7395
-47.4967
-47.2438
-49.3311
-49.3122
-49.2742
-49.2168
-49.1396
-49.0418
-48.9231
-48.783
-48.6215
-48.4388
-48.236
-48.0151
-47.7787
-47.5303
-47.2735
-49.4089
-49.3905
-49.3534
-49.2972
-49.2212
-49.1244
-49.006
-48.8652
-48.7013
-48.5144
-48.3053
-48.0761
-47.8303
-47.5725
-47.3086
-49.5054
-49.4877
-49.452
-49.3977
-49.3237
-49.2288
-49.1116
-48.9706
-48.8045
-48.6125
-48.395
-48.1541
-47.894
-47.6213
-47.3449
-49.6198
-49.6032
-49.5695
-49.5181
-49.4474
-49.3558
-49.2413
-49.1014
-48.9337
-48.7364
-48.5085
-48.2516
-47.9704
-47.6742
-47.3762
-49.751
-49.7359
-49.7052
-49.6578
-49.5922
-49.5061
-49.3966
-49.2602
-49.093
-48.891
-48.6513
-48.3735
-48.0623
-47.7292
-47.3943
-49.8975
-49.8844
-49.8577
-49.8161
-49.7577
-49.68
-49.579
-49.4501
-49.2872
-49.0835
-48.8323
-48.5293
-48.1762
-47.7863
-47.3887
-50.0574
-50.0469
-50.0253
-49.9913
-49.943
-49.8772
-49.7897
-49.6742
-49.5225
-49.3238
-49.0655
-48.7353
-48.3271
-47.8512
-47.3475
-50.2281
-50.2207
-50.2054
-50.1811
-50.1459
-50.0965
-50.0285
-49.9348
-49.805
-49.6239
-49.3708
-49.0197
-48.546
-47.9441
-47.2607
-50.4063
-50.4026
-50.3949
-50.3822
-50.363
-50.3348
-50.2933
-50.2318
-50.139
-49.9963
-49.7741
-49.4267
-48.8933
-48.1188
-47.1277
-50.5885
-50.5889
-50.5895
-50.5899
-50.5894
-50.5864
-50.5784
-50.5603
-50.5229
-50.4485
-50.3028
-50.02
-49.482
-48.5101
-46.9784
-50.7705
-50.7751
-50.7845
-50.7989
-50.8185
-50.8434
-50.8737
-50.9083
-50.9441
-50.9722
-50.9685
-50.8689
-50.5047
-49.4618
-46.9626
-50.948
-50.9568
-50.9749
-51.0029
-51.0424
-51.0953
-51.1648
-51.2552
-51.3731
-51.5279
-51.7305
-51.9825
-52.2065
-51.8701
-47.9723
-46.9736
-46.7491
-46.5168
-46.2757
-46.0244
-45.7609
-45.4835
-45.1901
-44.8793
-44.55
-44.202
-43.8356
-43.4518
-43.0523
-42.6392
-42.2149
-41.782
-41.3433
-40.9017
-40.46
-40.0211
-39.5878
-39.1628
-38.7486
-38.3474
-37.9608
-37.5904
-37.2371
-36.9016
-36.5839
-36.2839
-36.001
-35.7344
-35.4828
-35.2451
-35.0199
-34.8057
-34.6013
-34.4052
-34.2163
-34.0334
-33.8554
-33.6814
-33.5108
-33.3433
-33.1787
-33.0175
-32.8605
-32.7088
-32.5636
-32.4264
-32.2984
-32.1811
-32.0753
-31.9821
-31.902
-31.8353
-31.782
-31.7422
-31.7153
-31.7009
-31.6984
-31.7074
-31.7272
-31.7575
-31.798
-31.8483
-31.9082
-31.9776
-32.0562
-32.1441
-32.241
-32.3471
-32.4623
-32.5868
-32.7207
-32.864
-33.0167
-33.1789
-33.3503
-33.5308
-33.7201
-33.918
-34.124
-34.3374
-34.5575
-34.7831
-35.0127
-35.2447
-35.4771
-46.9844
-46.7607
-46.5298
-46.2908
-46.0421
-45.7814
-45.5067
-45.2155
-44.9062
-44.5774
-44.2288
-43.8609
-43.4747
-43.0722
-42.6556
-42.2275
-41.7907
-41.3479
-40.9021
-40.4563
-40.0133
-39.5762
-39.1477
-38.7303
-38.3264
-37.9379
-37.566
-37.2119
-36.8761
-36.5588
-36.2596
-35.9779
-35.7129
-35.4632
-35.2274
-35.0042
-34.792
-34.5894
-34.3951
-34.2079
-34.0265
-33.8498
-33.6768
-33.5067
-33.3391
-33.1739
-33.0116
-32.8531
-32.6994
-32.5522
-32.413
-32.2832
-32.1643
-32.0573
-31.9633
-31.8826
-31.8158
-31.7628
-31.7234
-31.6972
-31.6835
-31.6819
-31.6915
-31.712
-31.7428
-31.7836
-31.8342
-31.8944
-31.964
-32.0428
-32.1307
-32.2276
-32.3336
-32.4486
-32.573
-32.7067
-32.85
-33.0028
-33.1652
-33.3368
-33.5177
-33.7075
-33.906
-34.1128
-34.3275
-34.5492
-34.7768
-35.0088
-35.2436
-35.4791
-47.0052
-46.7827
-46.5548
-46.3203
-46.0772
-45.8227
-45.5538
-45.2675
-44.9613
-44.6337
-44.2839
-43.9127
-43.5216
-43.1127
-42.689
-42.2531
-41.8082
-41.3572
-40.903
-40.4488
-39.9975
-39.5525
-39.1167
-38.693
-38.2839
-37.8912
-37.5164
-37.1607
-36.8244
-36.5077
-36.2103
-35.9313
-35.6696
-35.4237
-35.192
-34.9728
-34.7646
-34.5658
-34.3752
-34.1914
-34.0131
-33.839
-33.6681
-33.4991
-33.3315
-33.1651
-33.0005
-32.8386
-32.681
-32.5295
-32.3861
-32.2525
-32.1303
-32.0208
-31.925
-31.8434
-31.7764
-31.7239
-31.6855
-31.6608
-31.6489
-31.6489
-31.66
-31.6816
-31.7133
-31.7549
-31.8061
-31.8668
-31.9368
-32.0159
-32.104
-32.2009
-32.3066
-32.4213
-32.5452
-32.6787
-32.8219
-32.9749
-33.1376
-33.3097
-33.4912
-33.6818
-33.8815
-34.0899
-34.3069
-34.5318
-34.7635
-35.0006
-35.2411
-35.4827
-47.0336
-46.8129
-46.5897
-46.3626
-46.129
-45.885
-45.6263
-45.3484
-45.0478
-44.722
-44.3703
-43.9936
-43.5942
-43.1752
-42.74
-42.2922
-41.835
-41.3714
-40.9044
-40.4372
-39.9732
-39.5158
-39.0687
-38.6351
-38.2178
-37.8189
-37.4399
-37.0817
-36.7448
-36.4293
-36.1347
-35.86
-35.6038
-35.3641
-35.1388
-34.926
-34.7239
-34.5308
-34.3456
-34.167
-33.9937
-33.8241
-33.6566
-33.4897
-33.3223
-33.154
-32.9855
-32.818
-32.6538
-32.4953
-32.345
-32.2053
-32.0781
-31.9647
-31.8662
-31.7832
-31.716
-31.6644
-31.628
-31.6059
-31.5969
-31.5997
-31.6132
-31.6366
-31.6696
-31.7121
-31.764
-31.8255
-31.8962
-31.976
-32.0644
-32.1612
-32.2664
-32.3803
-32.5034
-32.6364
-32.7794
-32.9327
-33.0959
-33.2689
-33.4512
-33.6428
-33.8438
-34.0544
-34.2746
-34.5041
-34.7421
-34.9869
-35.2364
-35.4879
-47.0658
-46.8469
-46.6304
-46.4147
-46.196
-45.9689
-45.7267
-45.4625
-45.1708
-44.848
-44.4931
-44.1077
-43.6955
-43.2611
-42.8096
-42.3451
-41.8712
-41.3908
-40.9065
-40.4215
-39.9395
-39.4647
-39.0016
-38.5542
-38.1257
-37.7184
-37.3337
-36.9724
-36.6348
-36.3211
-36.0308
-35.7625
-35.5144
-35.2839
-35.068
-34.8642
-34.6702
-34.4848
-34.3068
-34.1354
-33.9692
-33.8064
-33.6445
-33.4812
-33.3145
-33.1435
-32.969
-32.7929
-32.6184
-32.4492
-32.2888
-32.1403
-32.0059
-31.8872
-31.785
-31.7002
-31.6329
-31.5831
-31.5499
-31.5321
-31.5278
-31.5349
-31.5519
-31.5777
-31.6121
-31.6554
-31.7081
-31.7705
-31.8424
-31.9233
-32.0124
-32.109
-32.2132
-32.3256
-32.4472
-32.5791
-32.7219
-32.8756
-33.04
-33.2141
-33.3974
-33.5898
-33.7919
-34.0044
-34.2283
-34.4638
-34.7102
-34.966
-35.2284
-35.4941
-47.0956
-46.878
-46.6703
-46.4713
-46.2756
-46.075
-45.859
-45.6166
-45.339
-45.0205
-44.66
-44.2607
-43.8289
-43.3723
-42.8981
-42.4119
-41.9173
-41.416
-40.91
-40.4018
-39.8957
-39.3972
-38.9123
-38.4463
-38.0033
-37.5856
-37.1941
-36.8291
-36.4909
-36.1797
-35.8952
-35.6363
-35.4001
-35.1829
-34.9802
-34.7883
-34.6047
-34.4282
-34.2588
-34.0964
-33.9401
-33.7875
-33.6348
-33.4778
-33.3129
-33.1383
-32.9549
-32.7656
-32.5756
-32.3905
-32.2156
-32.055
-31.9112
-31.7857
-31.679
-31.5919
-31.5247
-31.4776
-31.4497
-31.4388
-31.442
-31.4558
-31.4777
-31.5062
-31.5415
-31.5849
-31.6379
-31.7015
-31.7755
-31.8586
-31.9491
-32.0456
-32.148
-32.2574
-32.3759
-32.5057
-32.6481
-32.8031
-32.9695
-33.1456
-33.33
-33.5226
-33.7244
-33.9377
-34.1648
-34.4071
-34.6645
-34.9351
-35.2153
-35.5006
-47.1139
-46.8949
-46.6983
-46.5232
-46.3627
-46.2038
-46.0295
-45.8219
-45.5663
-45.2537
-44.8832
-44.461
-43.9985
-43.5091
-43.0043
-42.4914
-41.9731
-41.4486
-40.9169
-40.3796
-39.8415
-39.3105
-38.796
-38.3057
-37.845
-37.4155
-37.0167
-36.6476
-36.3083
-35.9999
-35.7233
-35.4776
-35.259
-35.0612
-34.8771
-34.7009
-34.5291
-34.3617
-34.2008
-34.0489
-33.906
-33.769
-33.6315
-33.4859
-33.3253
-33.1462
-32.9492
-32.7397
-32.5258
-32.3171
-32.1218
-31.9454
-31.7904
-31.657
-31.545
-31.4547
-31.3875
-31.3444
-31.3247
-31.3253
-31.3407
-31.3651
-31.3938
-31.4247
-31.4591
-31.5003
-31.5523
-31.6174
-31.6953
-31.7831
-31.8768
-31.9734
-32.0723
-32.1757
-32.288
-32.4138
-32.5557
-32.7136
-32.8846
-33.0647
-33.2506
-33.4415
-33.64
-33.8507
-34.0789
-34.3283
-34.5994
-34.8897
-35.1943
-35.5066
-47.1065
-46.88
-46.6955
-46.5545
-46.4478
-46.3551
-46.2481
-46.0968
-45.8758
-45.5709
-45.1812
-44.7195
-44.2073
-43.6684
-43.1224
-42.5792
-42.0381
-41.4917
-40.9324
-40.3588
-39.7772
-39.2007
-38.6449
-38.123
-37.642
-37.2014
-36.7967
-36.4236
-36.0817
-35.7748
-35.5073
-35.2802
-35.0881
-34.92
-34.7632
-34.6072
-34.4474
-34.286
-34.1303
-33.9885
-33.8636
-33.7513
-33.6402
-33.5157
-33.3647
-33.1798
-32.9619
-32.72
-32.4687
-32.2245
-32.0008
-31.8052
-31.6385
-31.4976
-31.3795
-31.2843
-31.2156
-31.1775
-31.1706
-31.1901
-31.2264
-31.2681
-31.3064
-31.3382
-31.3665
-31.3999
-31.4474
-31.5147
-31.6006
-31.6986
-31.7999
-31.8976
-31.9898
-32.081
-32.1804
-32.2981
-32.44
-32.605
-32.7864
-32.975
-33.1633
-33.3493
-33.5375
-33.738
-33.9621
-34.2175
-34.5061
-34.8233
-35.1615
-35.5111
-47.0524
-46.8048
-46.6303
-46.5365
-46.5131
-46.5274
-46.5311
-46.4721
-46.3068
-46.0102
-45.5833
-45.0512
-44.4547
-43.8383
-43.2367
-42.6644
-42.1113
-41.5536
-40.969
-40.3497
-39.7058
-39.0614
-38.4454
-37.8819
-37.3811
-36.9362
-36.5316
-36.1548
-35.805
-35.493
-35.2334
-35.0328
-34.8828
-34.7628
-34.6483
-34.5194
-34.3682
-34.2021
-34.0403
-33.9038
-33.8033
-33.7321
-33.6683
-33.5838
-33.453
-33.2612
-33.0092
-32.7138
-32.4017
-32.1024
-31.8395
-31.6234
-31.4496
-31.3055
-31.1809
-31.0757
-30.9997
-30.9654
-30.9784
-31.0309
-31.104
-31.1757
-31.2286
-31.2563
-31.2667
-31.2789
-31.3141
-31.3848
-31.4882
-31.6091
-31.7281
-31.8295
-31.9084
-31.9739
-32.0463
-32.1475
-32.2904
-32.4723
-32.6774
-32.8853
-33.0791
-33.2534
-33.417
-33.591
-33.7995
-34.0588
-34.3709
-34.7264
-35.1117
-35.513
-46.9208
-46.6245
-46.4492
-46.4175
-46.5242
-46.715
-46.9046
-47.0009
-46.9269
-46.6376
-46.1371
-45.4758
-44.7313
-43.987
-43.3093
-42.722
-42.1914
-41.6545
-41.0561
-40.3763
-39.6356
-38.8813
-38.1705
-37.5507
-37.0399
-36.6131
-36.2267
-35.8475
-35.474
-35.1362
-34.8748
-34.7127
-34.6345
-34.5981
-34.5543
-34.4639
-34.3108
-34.1124
-33.9141
-33.7673
-33.7012
-33.7023
-33.7264
-33.7186
-33.6295
-33.4292
-33.1192
-32.7316
-32.3163
-31.9281
-31.6106
-31.3807
-31.2179
-31.0852
-30.9545
-30.8251
-30.7236
-30.6851
-30.7295
-30.8417
-30.9835
-31.1103
-31.1868
-31.1991
-31.1641
-31.1246
-31.1294
-31.2076
-31.3502
-31.5223
-31.6813
-31.7934
-31.8459
-31.8568
-31.8703
-31.9363
-32.0846
-32.3059
-32.5643
-32.8153
-33.0229
-33.1724
-33.2811
-33.394
-33.5634
-33.8238
-34.1727
-34.5863
-35.0385
-35.5111
-46.6666
-46.2702
-46.0617
-46.0992
-46.4144
-46.9046
-47.4124
-47.7754
-47.8571
-47.5696
-46.9226
-46.0206
-45.0076
-44.0403
-43.2517
-42.6984
-42.2806
-41.8441
-41.2606
-40.4907
-39.5853
-38.639
-37.7646
-37.0629
-36.5778
-36.2322
-35.9117
-35.5322
-35.0918
-34.6699
-34.3731
-34.2722
-34.3263
-34.4441
-34.5277
-34.4988
-34.3189
-34.0226
-33.714
-33.5146
-33.5027
-33.6393
-33.8307
-33.9706
-33.9661
-33.7554
-33.3411
-32.7892
-32.1922
-31.6519
-31.2557
-31.0415
-30.9428
-30.8618
-30.7261
-30.5345
-30.3566
-30.2855
-30.3827
-30.61
-30.8845
-31.1172
-31.2372
-31.21
-31.0677
-30.9065
-30.8387
-30.9374
-31.1696
-31.454
-31.702
-31.843
-31.843
-31.7355
-31.6186
-31.6064
-31.7733
-32.086
-32.4613
-32.8075
-33.0499
-33.1499
-33.1387
-33.1151
-33.1962
-33.461
-33.881
-34.3903
-34.9356
-35.5016
-46.219
-45.6455
-45.3202
-45.3816
-46.0528
-47.0692
-48.129
-48.9552
-49.319
-49.0198
-48.0756
-46.7253
-45.2186
-43.8366
-42.8557
-42.48
-42.3972
-42.2458
-41.734
-40.8006
-39.5944
-38.2932
-37.1106
-36.2636
-35.9153
-35.8154
-35.682
-35.3051
-34.6832
-34.0237
-33.5896
-33.609
-33.9265
-34.3397
-34.6632
-34.7513
-34.4951
-33.9506
-33.357
-32.9922
-33.0903
-33.4977
-34.0094
-34.4309
-34.5998
-34.3748
-33.7613
-32.9117
-31.9866
-31.168
-30.6391
-30.5357
-30.6424
-30.7173
-30.5782
-30.2243
-29.8356
-29.6435
-29.8486
-30.3101
-30.8456
-31.2862
-31.4996
-31.3863
-30.9982
-30.5539
-30.3079
-30.475
-30.9136
-31.4379
-31.8764
-32.0953
-31.9947
-31.6275
-31.2158
-31.018
-31.252
-31.7754
-32.3999
-32.949
-33.2815
-33.2872
-33.014
-32.6848
-32.564
-32.8743
-33.4606
-34.1419
-34.8028
-35.4661
-45.4281
-44.6639
-44.0225
-43.7865
-45.1945
-47.1721
-49.1824
-50.8013
-51.736
-51.3994
-49.8139
-47.6559
-45.2504
-43.0559
-41.5888
-41.8403
-42.613
-43.1668
-42.8149
-41.5038
-39.7408
-37.777
-35.9739
-34.7465
-34.8954
-35.4472
-35.8035
-35.4309
-34.3292
-33.0535
-32.1534
-32.5169
-33.3892
-34.3651
-35.138
-35.5
-35.0867
-33.9498
-32.671
-31.8034
-32.2332
-33.2061
-34.3182
-35.255
-35.8009
-35.5542
-34.5217
-33.1433
-31.6278
-30.2672
-29.4096
-29.7275
-30.388
-30.881
-30.7396
-29.9641
-29.0315
-28.4294
-28.9453
-29.9034
-30.9433
-31.7824
-32.232
-31.9583
-31.0095
-29.9153
-29.182
-29.6211
-30.5339
-31.5448
-32.3668
-32.8072
-32.5298
-31.5832
-30.5046
-29.8073
-30.3133
-31.3188
-32.4465
-33.4019
-33.9834
-33.8253
-32.9692
-31.954
-31.3106
-31.8895
-32.9028
-33.9225
-34.6661
-35.3068
-43.7405
-43.5055
-42.141
-39.8237
-43.516
-47.2279
-50.7999
-53.6328
-55.9843
-55.5775
-52.377
-48.9431
-44.9785
-41.2281
-37.8471
-40.4502
-43.1445
-45.3923
-45.2773
-42.8581
-40.1766
-37.0299
-34.0081
-31.2478
-33.2958
-35.3606
-36.975
-36.6071
-34.2261
-31.5425
-28.8977
-30.6924
-32.7029
-34.683
-36.2047
-37.3655
-36.7207
-34.1536
-31.3928
-28.7464
-30.594
-32.7143
-34.8798
-36.6422
-38.1434
-37.8651
-35.7805
-33.5723
-31.0461
-28.6421
-26.4876
-28.4259
-30.3747
-31.9584
-31.814
-29.9301
-27.7513
-25.6053
-27.4051
-29.3786
-31.3302
-32.8392
-34.0057
-33.5024
-31.23
-28.7568
-26.3678
-28.0849
-30.0124
-31.9237
-33.4063
-34.5524
-34.0281
-31.7286
-29.244
-26.8636
-28.6551
-30.686
-32.7407
-34.3927
-35.7499
-35.3684
-33.1529
-30.6876
-28.2968
-30.2789
-32.3353
-34.1005
-34.6769
-34.5253
-38.1621
-43.9736
-41.6322
-27.2075
-41.8097
-47.4856
-53.482
-57.158
-64.2047
-63.7791
-55.2767
-50.995
-44.3985
-38.8686
-25.489
-38.929
-44.3197
-51.0205
-51.0581
-44.5908
-41.2826
-36.1033
-31.6662
-20.8257
-31.6722
-35.9233
-41.0011
-40.6825
-34.5591
-29.9761
-19.2493
-28.5576
-32.0609
-35.6614
-37.7914
-41.8317
-41.123
-34.6366
-29.9504
-19.2185
-28.5624
-32.1578
-36.0223
-38.4056
-43.0488
-42.7771
-37.2177
-34.4593
-30.2886
-26.6578
-17.6721
-27.1092
-30.8873
-35.5244
-35.3932
-30.3207
-26.4242
-17.0989
-25.6149
-28.8855
-32.354
-34.3893
-38.1836
-37.5936
-31.7396
-27.4766
-17.6407
-26.2452
-29.5142
-32.9197
-34.9297
-38.7026
-38.0822
-32.1403
-27.833
-17.9119
-26.6518
-30.0183
-33.6144
-35.8076
-40.0195
-39.552
-33.696
-29.3134
-18.9856
-28.5607
-32.1866
-35.9897
-35.735
-30.492
-35.7306
-36.0018
-36.2634
-36.5124
-36.7457
-36.961
-37.1566
-37.3314
-37.4845
-37.6156
-37.7247
-37.8116
-37.8766
-37.9198
-37.9414
-35.736
-36.0107
-36.2757
-36.5275
-36.7631
-36.9802
-37.177
-37.3525
-37.5061
-37.6373
-37.7463
-37.8331
-37.8979
-37.941
-37.9625
-35.7467
-36.0289
-36.3008
-36.5584
-36.7986
-37.0191
-37.2183
-37.3952
-37.5494
-37.6808
-37.7896
-37.876
-37.9405
-37.9833
-38.0047
-35.763
-36.057
-36.3395
-36.6061
-36.8534
-37.079
-37.2814
-37.4601
-37.615
-37.7464
-37.8547
-37.9405
-38.0043
-38.0466
-38.0677
-35.7853
-36.0962
-36.3937
-36.6726
-36.9293
-37.1614
-37.3678
-37.5484
-37.7038
-37.8346
-37.9419
-38.0265
-38.0892
-38.1307
-38.1513
-35.8141
-36.1482
-36.4659
-36.761
-37.0293
-37.2689
-37.4794
-37.6615
-37.8165
-37.9459
-38.0512
-38.1339
-38.1949
-38.2351
-38.255
-35.8507
-36.216
-36.5603
-36.8756
-37.1576
-37.4051
-37.6189
-37.8012
-37.9543
-38.0808
-38.1829
-38.2624
-38.3209
-38.3592
-38.3783
-35.897
-36.3045
-36.6832
-37.023
-37.3199
-37.5744
-37.7896
-37.9694
-38.1182
-38.2395
-38.3365
-38.4115
-38.4664
-38.5023
-38.5201
-35.9567
-36.4215
-36.8444
-37.2129
-37.5243
-37.7827
-37.995
-38.1683
-38.309
-38.4221
-38.5116
-38.5804
-38.6304
-38.6631
-38.6792
-36.036
-36.5802
-37.0598
-37.4595
-37.7816
-38.037
-38.2391
-38.3994
-38.5268
-38.6278
-38.7069
-38.7674
-38.8112
-38.8398
-38.8539
-36.1442
-36.803
-37.3546
-37.7835
-38.1051
-38.3445
-38.5248
-38.663
-38.7705
-38.8548
-38.9204
-38.9705
-39.0069
-39.0306
-39.0423
-36.2939
-37.1325
-37.7717
-38.2137
-38.5103
-38.7112
-38.8527
-38.9571
-39.0372
-39.0998
-39.149
-39.1869
-39.2146
-39.2328
-39.2419
-36.5022
-37.6604
-38.3853
-38.7882
-39.0094
-39.1367
-39.2176
-39.2756
-39.3209
-39.3579
-39.3884
-39.4128
-39.4313
-39.4437
-39.4499
-36.8394
-38.6211
-39.3217
-39.5447
-39.601
-39.6077
-39.6055
-39.6065
-39.6125
-39.6221
-39.6333
-39.6442
-39.6535
-39.6603
-39.6638
-37.9223
-40.6614
-40.735
-40.468
-40.2407
-40.0868
-39.99
-39.9324
-39.9004
-39.8844
-39.8779
-39.8767
-39.8778
-39.8795
-39.8806
-51.1029
-51.1152
-51.1403
-51.1797
-51.2355
-51.3113
-51.4126
-51.5482
-51.7328
-51.9934
-52.3838
-53.0294
-54.2805
-57.3427
-67.2108
-51.2353
-51.2503
-51.281
-51.3291
-51.3973
-51.4901
-51.6142
-51.7804
-52.0071
-52.3265
-52.8009
-53.5609
-54.9086
-57.5912
-63.4459
-51.3576
-51.3747
-51.4098
-51.4647
-51.5423
-51.6472
-51.7865
-51.9708
-52.217
-52.5522
-53.0197
-53.6848
-54.6099
-55.6369
-55.0743
-51.468
-51.4867
-51.525
-51.5846
-51.6684
-51.7807
-51.9276
-52.1183
-52.3653
-52.686
-53.1018
-53.6283
-54.2405
-54.7865
-54.9805
-51.5656
-51.5854
-51.6256
-51.688
-51.7749
-51.8901
-52.0385
-52.2266
-52.4623
-52.7542
-53.1074
-53.5124
-53.9174
-54.1807
-53.9943
-51.6497
-51.6699
-51.711
-51.7744
-51.8619
-51.9766
-52.1218
-52.3018
-52.5203
-52.78
-53.0775
-53.3964
-53.6926
-53.8875
-53.9018
-51.7198
-51.7401
-51.7812
-51.8441
-51.9303
-52.0419
-52.1811
-52.35
-52.5499
-52.7797
-53.0335
-53.2963
-53.5382
-53.7201
-53.8171
-51.776
-51.796
-51.8363
-51.8977
-51.9812
-52.0882
-52.2198
-52.3767
-52.5586
-52.763
-52.9839
-53.2105
-53.4255
-53.6119
-53.7523
-51.8185
-51.8379
-51.8769
-51.9361
-52.0161
-52.1175
-52.2409
-52.386
-52.5517
-52.735
-52.9311
-53.1329
-53.3325
-53.5361
-53.8286
-51.8477
-51.8663
-51.9037
-51.9602
-52.0361
-52.1317
-52.2468
-52.381
-52.5324
-52.6984
-52.8749
-53.0569
-53.2367
-53.3989
-53.4358
-51.864
-51.8818
-51.9174
-51.971
-52.0426
-52.1323
-52.2397
-52.3638
-52.503
-52.6546
-52.8155
-52.9823
-53.1532
-53.349
-53.7372
-51.8682
-51.885
-51.9187
-51.9693
-52.0367
-52.1208
-52.2209
-52.3361
-52.4648
-52.6046
-52.7527
-52.9049
-53.0523
-53.1658
-53.0557
-51.8608
-51.8767
-51.9085
-51.9561
-52.0194
-52.0981
-52.1917
-52.299
-52.4189
-52.5492
-52.6876
-52.8309
-52.9748
-53.1384
-53.5467
-51.8424
-51.8574
-51.8874
-51.9321
-51.9916
-52.0653
-52.1528
-52.2533
-52.3655
-52.4882
-52.6197
-52.7564
-52.8837
-52.9412
-52.6211
-51.8138
-51.8279
-51.856
-51.8981
-51.9539
-52.023
-52.105
-52.1992
-52.3048
-52.4213
-52.5488
-52.6885
-52.8409
-53.0066
-53.1701
-51.7755
-51.7887
-51.8152
-51.8547
-51.907
-51.9719
-52.0487
-52.1371
-52.2365
-52.347
-52.4701
-52.6117
-52.7889
-53.0738
-53.8312
-51.7281
-51.7405
-51.7654
-51.8025
-51.8516
-51.9124
-51.9845
-52.0674
-52.1605
-52.2639
-52.3791
-52.5102
-52.6621
-52.8133
-52.6301
-51.6721
-51.6838
-51.7072
-51.742
-51.7881
-51.8452
-51.9128
-51.9904
-52.0773
-52.1729
-52.2776
-52.3942
-52.5358
-52.7851
-53.6871
-51.6081
-51.6191
-51.6411
-51.6738
-51.7172
-51.7708
-51.8343
-51.9069
-51.9879
-52.0757
-52.1683
-52.2607
-52.3348
-52.3039
-51.6064
-51.5366
-51.5469
-51.5675
-51.5983
-51.6391
-51.6896
-51.7493
-51.8177
-51.8936
-51.9753
-52.0596
-52.1401
-52.2065
-52.2859
-52.8028
-51.4579
-51.4676
-51.487
-51.516
-51.5544
-51.602
-51.6584
-51.7231
-51.7952
-51.8732
-51.954
-52.029
-52.0693
-51.9644
-51.1765
-51.3725
-51.3817
-51.4
-51.4273
-51.4635
-51.5084
-51.5617
-51.6233
-51.6927
-51.7694
-51.853
-51.9421
-52.0327
-52.1174
-52.1827
-51.2809
-51.2895
-51.3067
-51.3324
-51.3665
-51.4089
-51.4594
-51.518
-51.5849
-51.6609
-51.7484
-51.8542
-52.0001
-52.2842
-53.2332
-51.1833
-51.1914
-51.2076
-51.2318
-51.2639
-51.3038
-51.3514
-51.407
-51.4709
-51.5445
-51.6315
-51.7385
-51.8715
-51.9893
-51.6075
-51.0802
-51.0878
-51.103
-51.1257
-51.1558
-51.1933
-51.238
-51.2901
-51.3499
-51.419
-51.5011
-51.6048
-51.7533
-52.0415
-53.0503
-50.9717
-50.9789
-50.9932
-51.0145
-51.0428
-51.0778
-51.1195
-51.1677
-51.2225
-51.2846
-51.3558
-51.4401
-51.538
-51.5936
-51.0256
-50.8584
-50.8651
-50.8785
-50.8986
-50.925
-50.9578
-50.9964
-51.0407
-51.09
-51.1438
-51.2018
-51.2658
-51.3522
-51.5788
-52.7734
-50.7404
-50.7467
-50.7594
-50.7782
-50.803
-50.8336
-50.8695
-50.9102
-50.9544
-51.0002
-51.0437
-51.076
-51.0688
-50.8919
-49.7176
-50.618
-50.624
-50.6359
-50.6536
-50.677
-50.7057
-50.7393
-50.7771
-50.8177
-50.8583
-50.8937
-50.9136
-50.9032
-50.8978
-51.4788
-50.4915
-50.4971
-50.5084
-50.5251
-50.5472
-50.5744
-50.6062
-50.6421
-50.6808
-50.72
-50.7546
-50.7721
-50.7342
-50.4965
-49.353
-50.361
-50.3664
-50.3771
-50.393
-50.414
-50.4398
-50.4704
-50.5051
-50.5436
-50.5849
-50.6275
-50.6689
-50.7039
-50.7244
-50.7232
-50.2269
-50.232
-50.2421
-50.2573
-50.2773
-50.3021
-50.3315
-50.3656
-50.4044
-50.4488
-50.5015
-50.5702
-50.6835
-50.9675
-52.0927
-50.0891
-50.094
-50.1037
-50.1182
-50.1373
-50.1611
-50.1895
-50.2226
-50.2613
-50.3071
-50.3642
-50.4406
-50.5444
-50.6265
-50.0908
-49.948
-49.9527
-49.9619
-49.9758
-49.9941
-50.0169
-50.0441
-50.0759
-50.1131
-50.1576
-50.2136
-50.2918
-50.4205
-50.7144
-51.8701
-49.8036
-49.8081
-49.817
-49.8302
-49.8478
-49.8695
-49.8954
-49.9254
-49.9599
-49.9999
-50.0477
-50.1078
-50.182
-50.2038
-49.4837
-49.6561
-49.6604
-49.6689
-49.6817
-49.6986
-49.7193
-49.7438
-49.7718
-49.8029
-49.8367
-49.873
-49.9141
-49.9798
-50.2083
-51.5664
-49.5055
-49.5096
-49.5179
-49.5303
-49.5465
-49.5665
-49.5898
-49.6161
-49.6441
-49.6718
-49.695
-49.7031
-49.6645
-49.4282
-48.0328
-49.3519
-49.356
-49.364
-49.3761
-49.3919
-49.4113
-49.4339
-49.459
-49.4854
-49.5101
-49.5272
-49.5246
-49.4865
-49.453
-50.091
-49.1955
-49.1995
-49.2074
-49.2191
-49.2347
-49.2537
-49.2761
-49.3011
-49.3278
-49.3536
-49.3727
-49.3708
-49.3052
-49.0115
-47.6857
-49.0362
-49.0401
-49.0479
-49.0595
-49.0749
-49.0939
-49.1164
-49.1422
-49.1708
-49.2016
-49.2328
-49.2613
-49.2821
-49.2866
-49.2682
-48.8741
-48.878
-48.8857
-48.8972
-48.9125
-48.9316
-48.9544
-48.9812
-49.0124
-49.0491
-49.0944
-49.157
-49.2702
-49.5775
-50.839
-48.7093
-48.7131
-48.7208
-48.7322
-48.7475
-48.7665
-48.7896
-48.8171
-48.8501
-48.8907
-48.9436
-49.0177
-49.1235
-49.2056
-48.5913
-48.5416
-48.5455
-48.5531
-48.5645
-48.5797
-48.5987
-48.6217
-48.6493
-48.6825
-48.7236
-48.7777
-48.8565
-48.9931
-49.3171
-50.6141
-48.3713
-48.3751
-48.3826
-48.394
-48.4091
-48.4279
-48.4507
-48.4776
-48.5094
-48.5473
-48.5941
-48.655
-48.7327
-48.7528
-47.9388
-48.1981
-48.2019
-48.2094
-48.2207
-48.2357
-48.2544
-48.2767
-48.3026
-48.332
-48.3647
-48.4005
-48.4418
-48.5121
-48.7676
-50.2999
-48.0222
-48.026
-48.0335
-48.0448
-48.0597
-48.0782
-48.1002
-48.1252
-48.1525
-48.1798
-48.2024
-48.2085
-48.1629
-47.8956
-46.321
-47.8435
-47.8473
-47.8548
-47.8661
-47.8811
-47.8996
-47.9215
-47.9463
-47.9728
-47.998
-48.0153
-48.0109
-47.9677
-47.9313
-48.6562
-47.6621
-47.6658
-47.6734
-47.6847
-47.6998
-47.7185
-47.7408
-47.7663
-47.7941
-47.8216
-47.8425
-47.8404
-47.7676
-47.4381
-45.9396
-47.4778
-47.4816
-47.4892
-47.5006
-47.5158
-47.5348
-47.5578
-47.5848
-47.6155
-47.6496
-47.6852
-47.7189
-47.7457
-47.7562
-47.7417
-47.2908
-47.2946
-47.3022
-47.3136
-47.3289
-47.3483
-47.3721
-47.4006
-47.4348
-47.4763
-47.5286
-47.6021
-47.7351
-48.0915
-49.5359
-47.1009
-47.1047
-47.1123
-47.1237
-47.1391
-47.1587
-47.1829
-47.2125
-47.2489
-47.2952
-47.3567
-47.4439
-47.5695
-47.6709
-46.9797
-46.9082
-46.912
-46.9195
-46.9309
-46.9462
-46.9658
-46.9899
-47.0196
-47.0564
-47.1033
-47.1663
-47.259
-47.4205
-47.8003
-49.3016
-46.7127
-46.7164
-46.7239
-46.7351
-46.7502
-46.7694
-46.7931
-46.8219
-46.8569
-46.8999
-46.9544
-47.0263
-47.12
-47.1507
-46.2241
-46.5145
-46.5181
-46.5254
-46.5364
-46.5512
-46.5699
-46.5927
-46.62
-46.6518
-46.6883
-46.7295
-46.7785
-46.8633
-47.1655
-48.9502
-46.3135
-46.317
-46.3241
-46.3348
-46.3492
-46.3673
-46.3893
-46.4149
-46.4435
-46.4732
-46.4985
-46.5058
-46.4554
-46.1504
-44.3311
-46.1098
-46.1132
-46.1201
-46.1304
-46.1444
-46.1619
-46.1831
-46.2077
-46.2346
-46.2609
-46.279
-46.2732
-46.2244
-46.1865
-47.0387
-45.9035
-45.9068
-45.9134
-45.9234
-45.9368
-45.9539
-45.9746
-45.999
-46.0263
-46.054
-46.075
-46.0705
-45.9857
-45.604
-43.86
-45.6947
-45.6978
-45.7041
-45.7136
-45.7265
-45.7431
-45.7635
-45.7883
-45.8177
-45.8515
-45.8879
-45.9234
-45.9532
-45.967
-45.9544
-45.4835
-45.4864
-45.4923
-45.5012
-45.5135
-45.5294
-45.5494
-45.5745
-45.6062
-45.6467
-45.7006
-45.7802
-45.9318
-46.348
-48.0433
-45.27
-45.2727
-45.2781
-45.2863
-45.2977
-45.3126
-45.3317
-45.3563
-45.3885
-45.4323
-45.4942
-45.587
-45.7266
-45.8403
-45.0267
-45.0544
-45.0567
-45.0616
-45.069
-45.0792
-45.0927
-45.1101
-45.1328
-45.1631
-45.2048
-45.2654
-45.3613
-45.5393
-45.976
-47.7345
-44.8368
-44.8389
-44.843
-44.8494
-44.8582
-44.8698
-44.8848
-44.9042
-44.9297
-44.9639
-45.011
-45.0786
-45.1724
-45.1932
-44.0903
-44.6176
-44.6192
-44.6226
-44.6278
-44.6349
-44.6443
-44.6563
-44.6715
-44.6904
-44.7136
-44.7413
-44.7777
-44.8563
-45.1903
-47.2604
-44.3969
-44.3981
-44.4007
-44.4045
-44.4099
-44.4168
-44.4256
-44.4363
-44.4483
-44.4597
-44.4645
-44.4473
-44.3627
-43.9813
-41.8323
-44.175
-44.1758
-44.1775
-44.1799
-44.1834
-44.1879
-44.1936
-44.2002
-44.2067
-44.2101
-44.2016
-44.1637
-44.0751
-43.9992
-44.9551
-43.9523
-43.9527
-43.9533
-43.9544
-43.9559
-43.958
-43.9607
-43.9642
-43.9676
-43.9682
-43.9579
-43.9154
-43.7787
-43.3
-41.2555
-43.7291
-43.7289
-43.7286
-43.7281
-43.7277
-43.7273
-43.7274
-43.7283
-43.7304
-43.7334
-43.7355
-43.7323
-43.7198
-43.6877
-43.6302
-43.5057
-43.505
-43.5036
-43.5016
-43.499
-43.4961
-43.4934
-43.4918
-43.4927
-43.4989
-43.5152
-43.5559
-43.6744
-44.0922
-45.9691
-43.2825
-43.2812
-43.2788
-43.2751
-43.2703
-43.2646
-43.2586
-43.2535
-43.2516
-43.2568
-43.2768
-43.3254
-43.4211
-43.483
-42.4985
-43.0597
-43.058
-43.0544
-43.049
-43.0419
-43.0331
-43.0232
-43.0132
-43.0055
-43.0041
-43.0171
-43.0621
-43.1913
-43.5998
-45.4654
-42.8379
-42.8356
-42.831
-42.8239
-42.8142
-42.8021
-42.7876
-42.7715
-42.7551
-42.7411
-42.7336
-42.7404
-42.7675
-42.704
-41.3991
-42.6174
-42.6146
-42.6089
-42.6001
-42.588
-42.5724
-42.5532
-42.5301
-42.5034
-42.4729
-42.4387
-42.4047
-42.4066
-42.6696
-44.7642
-42.3984
-42.3952
-42.3885
-42.3782
-42.3639
-42.3451
-42.3212
-42.2914
-42.2543
-42.207
-42.1423
-42.0439
-41.8643
-41.3627
-38.9956
-42.1814
-42.1777
-42.1703
-42.1588
-42.1426
-42.1211
-42.0933
-42.0579
-42.0125
-41.9525
-41.8679
-41.7395
-41.5457
-41.3504
-42.1805
-41.9665
-41.9626
-41.9547
-41.9422
-41.9246
-41.9011
-41.8706
-41.8313
-41.781
-41.7148
-41.6223
-41.4804
-41.2282
-40.6254
-38.4807
-41.754
-41.7499
-41.7417
-41.7288
-41.7105
-41.6859
-41.6538
-41.6127
-41.5607
-41.4947
-41.4096
-41.2979
-41.1541
-40.9705
-40.7618
-41.5438
-41.5398
-41.5316
-41.5187
-41.5003
-41.4755
-41.4431
-41.4018
-41.3502
-41.2874
-41.2136
-41.1378
-41.1077
-41.3322
-42.9028
-41.3361
-41.3323
-41.3244
-41.312
-41.2943
-41.2702
-41.2386
-41.1982
-41.1478
-41.0871
-41.0176
-40.946
-40.8844
-40.7583
-39.6699
-41.1307
-41.1272
-41.12
-41.1086
-41.0922
-41.0698
-41.0401
-41.0016
-40.9526
-40.8924
-40.8213
-40.7472
-40.7061
-40.8519
-42.1553
-40.9273
-40.9243
-40.9181
-40.9083
-40.894
-40.8743
-40.8477
-40.8123
-40.7656
-40.7046
-40.6256
-40.5255
-40.398
-40.1408
-38.837
-40.7256
-40.7233
-40.7184
-40.7106
-40.6992
-40.6833
-40.6614
-40.631
-40.5886
-40.5287
-40.4429
-40.3227
-40.1801
-40.1556
-41.3319
-40.5252
-40.5236
-40.5202
-40.5149
-40.5072
-40.4963
-40.4808
-40.4582
-40.4241
-40.3704
-40.2825
-40.1353
-39.8802
-39.3359
-37.4664
-40.3256
-40.3248
-40.3231
-40.3205
-40.317
-40.3121
-40.305
-40.2935
-40.2733
-40.2352
-40.1617
-40.0229
-39.7813
-39.4357
-39.4897
-40.1262
-40.1261
-40.1261
-40.1264
-40.1273
-40.1293
-40.1322
-40.1351
-40.135
-40.1241
-40.0845
-39.9818
-39.7545
-39.2572
-37.965
-39.9264
-39.927
-39.9285
-39.9314
-39.9366
-39.9455
-39.9592
-39.9789
-40.0046
-40.0323
-40.0494
-40.0274
-39.9151
-39.63
-39.1385
-39.7259
-39.7269
-39.7294
-39.7343
-39.7431
-39.758
-39.7819
-39.8188
-39.8728
-39.9473
-40.0399
-40.1355
-40.1958
-40.1454
-39.9757
-39.5242
-39.5254
-39.5283
-39.5342
-39.545
-39.564
-39.5957
-39.6468
-39.7271
-39.849
-40.0266
-40.2683
-40.5533
-40.7428
-40.4795
-39.3214
-39.3223
-39.3247
-39.3302
-39.3409
-39.3608
-39.3957
-39.4549
-39.5526
-39.7116
-39.9669
-40.3709
-40.9773
-41.6538
-41.0261
-39.1175
-39.1177
-39.1187
-39.122
-39.1301
-39.1469
-39.1789
-39.2362
-39.3357
-39.5066
-39.8023
-40.333
-41.3527
-43.4699
-48.1638
-38.9132
-38.9122
-38.9107
-38.9102
-38.9128
-38.9223
-38.9444
-38.9884
-39.0695
-39.2143
-39.4726
-39.9556
-40.9661
-43.4957
-51.5443
-53.25
-44.974
-42.343
-41.2779
-40.7583
-40.4729
-40.3065
-40.2077
-40.1494
-40.1156
-40.0969
-40.0871
-40.0824
-40.0805
-40.0798
-50.147
-44.9738
-42.7177
-41.6352
-41.0647
-40.7405
-40.5474
-40.4301
-40.3585
-40.3151
-40.2893
-40.2744
-40.2662
-40.2619
-40.2602
-41.9931
-42.9468
-42.2778
-41.6367
-41.1988
-40.9163
-40.7357
-40.6208
-40.548
-40.5022
-40.4739
-40.4567
-40.4467
-40.4413
-40.4389
-41.8302
-42.0458
-41.8188
-41.497
-41.2235
-41.0206
-40.8785
-40.7823
-40.7185
-40.677
-40.6503
-40.6337
-40.6237
-40.6181
-40.6156
-41.5224
-41.4513
-41.426
-41.3237
-41.1976
-41.082
-40.9896
-40.9215
-40.8736
-40.841
-40.8195
-40.8057
-40.7972
-40.7923
-40.7902
-40.186
-40.8243
-41.0868
-41.1668
-41.1629
-41.1265
-41.084
-41.0468
-41.018
-40.9972
-40.9829
-40.9736
-40.9677
-40.9644
-40.9629
-39.4941
-40.4575
-40.8746
-41.0679
-41.1495
-41.1746
-41.1747
-41.1663
-41.1567
-41.1486
-41.1426
-41.1386
-41.1361
-41.1348
-41.1341
-40.3034
-40.4691
-40.8183
-41.0462
-41.1738
-41.2394
-41.2714
-41.2868
-41.2943
-41.2982
-41.3006
-41.3022
-41.3034
-41.3042
-41.3046
-38.8371
-40.3526
-40.8464
-41.0941
-41.2397
-41.327
-41.3798
-41.4128
-41.4343
-41.4487