/*--------------------------------*- C++ -*----------------------------------*\
| =========                 |                                                 |
| \\      /  F ield         | OpenFOAM: The Open Source CFD Toolbox           |
|  \\    /   O peration     | Version:  5.x                                   |
|   \\  /    A nd           | Web:      www.OpenFOAM.org                      |
|    \\/     M anipulation  |                                                 |
\*---------------------------------------------------------------------------*/
FoamFile
{
    version     2.0;
    format      ascii;
    class       volScalarField;
    location    "4";
    object      gradTy;
}
// * * * * * * * * * * * * * * * * * * * * * * * * * * * * * * * * * * * * * //

dimensions      [0 -1 0 1 0 0 0];

internalField   nonuniform List<scalar> 
6300
(
32275.4
32226.2
32177
32127.8
32078.8
32029.8
31980.9
31932.2
31883.6
31835.1
31786.9
31738.8
31691
31643.4
31596.1
-0.0147247
-0.0442383
-0.0739315
-0.103884
-0.134108
-0.164524
-0.194938
-0.225033
-0.25437
-0.282418
-0.308612
-0.332459
-0.353666
-0.372297
-0.388891
-0.0244643
-0.0735223
-0.122931
-0.172843
-0.223308
-0.274217
-0.325261
-0.37591
-0.4254
-0.472777
-0.516988
-0.557059
-0.592337
-0.622788
-0.649268
-0.0340847
-0.102459
-0.171415
-0.241236
-0.312048
-0.383753
-0.455958
-0.527919
-0.598514
-0.666267
-0.729467
-0.786412
-0.835795
-0.877212
-0.911681
-0.0435039
-0.130823
-0.219044
-0.308647
-0.399906
-0.492802
-0.586912
-0.681312
-0.77449
-0.864332
-0.948224
-1.02335
-1.08724
-1.13862
-1.17833
-0.0526019
-0.158267
-0.265276
-0.374384
-0.486109
-0.600614
-0.717553
-0.8359
-0.953773
-1.06832
-1.17572
-1.27148
-1.35117
-1.41167
-1.45287
-0.0612375
-0.184365
-0.309409
-0.437501
-0.569529
-0.70599
-0.846784
-0.990956
-1.13638
-1.27944
-1.41484
-1.53567
-1.63427
-1.70398
-1.74213
-0.0692223
-0.208551
-0.350497
-0.496685
-0.648521
-0.807036
-0.97264
-1.14476
-1.32135
-1.49824
-1.66851
-1.82208
-1.94622
-2.02781
-2.05824
-0.0763236
-0.230119
-0.387344
-0.55022
-0.720833
-0.900993
-1.09198
-1.29409
-1.506
-1.72364
-1.93884
-2.13787
-2.30065
-2.40273
-2.42264
-0.0822759
-0.248257
-0.418538
-0.596014
-0.783595
-0.98412
-1.20017
-1.43363
-1.6849
-1.95142
-2.22531
-2.48984
-2.71568
-2.85967
-2.87354
-0.0867981
-0.262093
-0.442532
-0.6317
-0.833404
-1.05172
-1.29093
-1.55534
-1.84851
-2.1718
-2.52104
-2.8804
-3.21243
-3.44658
-3.47999
-0.0896207
-0.270782
-0.457792
-0.654844
-0.866598
-1.0984
-1.3565
-1.64824
-1.98196
-2.36617
-2.80656
-3.29817
-3.80693
-4.23413
-4.37294
-0.0905221
-0.273621
-0.463005
-0.663279
-0.879739
-1.11877
-1.3884
-1.69912
-2.06488
-2.50426
-3.04076
-3.69869
-4.48289
-5.31005
-5.82592
-0.0893677
-0.270172
-0.457321
-0.655525
-0.870301
-1.10851
-1.3792
-1.69493
-2.07411
-2.54514
-3.15344
-3.97284
-5.11589
-6.69733
-8.4759
-0.0861429
-0.260376
-0.44058
-0.631191
-0.837417
-1.06577
-1.32494
-1.62722
-1.99144
-2.44862
-3.05494
-3.92332
-5.3106
-7.88765
-13.689
31552.9
31513.9
31475
31436.3
31397.9
31359.6
31321.6
31283.8
31246.2
31209
31172
31135.3
31098.9
31062.8
31027.1
30991.7
30956.7
30922.1
30887.8
30853.9
30820.4
30787.2
30754.4
30722
30689.9
30658.1
30626.6
30595.5
30564.6
30534
30503.6
30473.5
30443.6
30414
30384.5
30355.3
30326.2
30297.3
30268.5
30239.9
30211.5
30183.2
30155.1
30127.1
30099.2
30071.5
30043.9
30016.5
29989.2
29962
29934.9
29907.9
29881.1
29854.3
29827.6
29801
29774.5
29748
29721.5
29695.1
29668.7
29642.3
29615.9
29589.4
29563
29536.5
29510
29483.5
29456.8
29430.2
29403.4
29376.6
29349.7
29322.7
29295.6
29268.4
29241.1
29213.7
29186.1
29158.4
29130.5
29102.5
29074.3
29046
29017.5
28988.8
28959.9
28930.8
28901.5
28872
-0.403214
-0.41655
-0.431216
-0.448213
-0.468379
-0.492231
-0.519851
-0.550843
-0.584357
-0.61921
-0.654039
-0.687485
-0.718341
-0.745649
-0.76873
-0.787145
-0.800627
-0.809012
-0.812195
-0.810126
-0.802837
-0.790491
-0.773404
-0.752057
-0.727065
-0.699139
-0.669034
-0.637515
-0.605333
-0.573217
-0.54185
-0.51185
-0.483726
-0.457852
-0.434447
-0.413589
-0.395245
-0.379325
-0.365715
-0.354293
-0.344912
-0.337353
-0.331279
-0.326201
-0.321484
-0.316396
-0.310189
-0.302192
-0.291896
-0.279011
-0.263477
-0.245438
-0.225196
-0.203156
-0.179779
-0.155551
-0.130957
-0.106458
-0.0824581
-0.0592696
-0.0370799
-0.0159417
0.00421285
0.0235319
0.0421908
0.0603441
0.0780984
0.0955146
0.112632
0.129503
0.146214
0.162885
0.17965
0.196614
0.21382
0.231235
0.248759
0.266256
0.283592
0.300661
0.317373
0.333635
0.349294
0.364097
0.377669
0.389521
0.399093
0.405819
0.409193
0.408828
-0.671615
-0.692255
-0.715123
-0.742142
-0.774947
-0.814582
-0.861263
-0.914272
-0.972025
-1.03229
-1.09252
-1.1502
-1.20316
-1.24978
-1.28897
-1.3201
-1.34285
-1.357
-1.3624
-1.35891
-1.34651
-1.32544
-1.29621
-1.25965
-1.21688
-1.16914
-1.11776
-1.06403
-1.00925
-0.954636
-0.901387
-0.850581
-0.803122
-0.759657
-0.720534
-0.685826
-0.655407
-0.629063
-0.606583
-0.587795
-0.572521
-0.560473
-0.551138
-0.543693
-0.537003
-0.529722
-0.520449
-0.507933
-0.491242
-0.46987
-0.443754
-0.413211
-0.378832
-0.341364
-0.301628
-0.260472
-0.218746
-0.177267
-0.136769
-0.0978186
-0.0607467
-0.0256176
0.00774517
0.0396721
0.0705315
0.100623
0.130123
0.159093
0.187548
0.215537
0.243205
0.270793
0.298579
0.326795
0.355537
0.384732
0.414164
0.443551
0.472632
0.501234
0.529259
0.556624
0.583147
0.608442
0.631866
0.652536
0.669413
0.681441
0.687683
0.687448
-0.939451
-0.964651
-0.99295
-1.02763
-1.07157
-1.12668
-1.19344
-1.27075
-1.35596
-1.44531
-1.53454
-1.61957
-1.697
-1.76448
-1.82067
-1.865
-1.89731
-1.91748
-1.92527
-1.92036
-1.90255
-1.87199
-1.82941
-1.77607
-1.7137
-1.64425
-1.5697
-1.49193
-1.41276
-1.33395
-1.25725
-1.18434
-1.11662
-1.05506
-1.00011
-0.951734
-0.909548
-0.873084
-0.841984
-0.816086
-0.795332
-0.779538
-0.768129
-0.759948
-0.75323
-0.74577
-0.735236
-0.719545
-0.697189
-0.667422
-0.630267
-0.586375
-0.536784
-0.482707
-0.425393
-0.366088
-0.306051
-0.246542
-0.188731
-0.133542
-0.0814976
-0.0326332
0.01346
0.0574628
0.100089
0.141865
0.183019
0.22352
0.263237
0.302136
0.340415
0.378513
0.416988
0.456314
0.496695
0.537981
0.579727
0.621373
0.66245
0.70272
0.742177
0.780905
0.818842
0.855552
0.8901
0.921079
0.946784
0.965464
0.975576
0.975996
-1.20743
-1.23267
-1.26168
-1.29989
-1.35222
-1.42209
-1.51057
-1.61599
-1.73406
-1.85863
-1.98278
-2.10004
-2.20536
-2.29564
-2.36965
-2.42742
-2.46946
-2.496
-2.50667
-2.50066
-2.47719
-2.43614
-2.37837
-2.30577
-2.22102
-2.12703
-2.02659
-1.92219
-1.81608
-1.71055
-1.60803
-1.51099
-1.4216
-1.34131
-1.27062
-1.20912
-1.15585
-1.10979
-1.07031
-1.0374
-1.01143
-0.992727
-0.980918
-0.974549
-0.970984
-0.966708
-0.957917
-0.941228
-0.914287
-0.876093
-0.826969
-0.76823
-0.701685
-0.629203
-0.552514
-0.473246
-0.393087
-0.313862
-0.237401
-0.16522
-0.0981505
-0.0361352
0.0217123
0.0767688
0.130408
0.183545
0.236405
0.288635
0.339671
0.389202
0.437467
0.485283
0.533773
0.583924
0.636171
0.690198
0.745079
0.799671
0.853095
0.905052
0.955833
1.00603
1.05601
1.1055
1.15321
1.19697
1.23403
1.26159
1.27724
1.27922
-1.47711
-1.49518
-1.51709
-1.55174
-1.60753
-1.69062
-1.80325
-1.94294
-2.10274
-2.2725
-2.44088
-2.59763
-2.7353
-2.85017
-2.94193
-3.01244
-3.06389
-3.09733
-3.11205
-3.10602
-3.07711
-3.02432
-2.94862
-2.85294
-2.74158
-2.61903
-2.48916
-2.35486
-2.21853
-2.08278
-1.95087
-1.8266
-1.71345
-1.61371
-1.52786
-1.45464
-1.39176
-1.33699
-1.28918
-1.24869
-1.21707
-1.19598
-1.18588
-1.18512
-1.18977
-1.19416
-1.19198
-1.17769
-1.14761
-1.10052
-1.03754
-0.961355
-0.875165
-0.781792
-0.683385
-0.581726
-0.478819
-0.377241
-0.279952
-0.18958
-0.10757
-0.0336809
0.0339378
0.0980684
0.161406
0.225575
0.290654
0.35542
0.418228
0.478046
0.535123
0.591041
0.648124
0.708477
0.773042
0.84115
0.910809
0.979613
1.04582
1.10905
1.17031
1.2314
1.29389
1.35797
1.42199
1.48247
1.53493
1.57487
1.59854
1.60335
-1.75245
-1.75209
-1.75411
-1.77304
-1.82345
-1.91653
-2.05686
-2.24084
-2.45698
-2.68824
-2.91564
-3.12258
-3.29797
-3.43787
-3.54472
-3.62476
-3.68412
-3.72551
-3.74718
-3.7442
-3.71128
-3.64539
-3.5475
-3.42258
-3.2781
-3.12147
-2.95796
-2.79032
-2.62001
-2.44932
-2.28259
-2.12604
-1.98585
-1.86597
-1.76676
-1.68511
-1.61585
-1.55405
-1.49734
-1.44704
-1.40741
-1.38327
-1.37722
-1.38774
-1.4088
-1.43091
-1.44335
-1.43674
-1.40528
-1.3477
-1.26698
-1.16874
-1.05884
-0.941486
-0.818793
-0.69186
-0.562496
-0.434301
-0.3124
-0.201758
-0.105157
-0.0220572
0.0513249
0.120648
0.191342
0.266432
0.345488
0.425158
0.501224
0.570968
0.634581
0.695252
0.757895
0.827092
0.904934
0.989991
1.07789
1.16341
1.24296
1.31599
1.38513
1.4549
1.52954
1.61066
1.69597
1.77961
1.85395
1.91167
1.94707
1.9565
-2.04174
-2.00548
-1.96663
-1.94885
-1.97773
-2.07416
-2.24736
-2.49217
-2.7892
-3.10925
-3.41961
-3.69265
-3.91145
-4.07283
-4.18578
-4.26653
-4.32988
-4.3817
-4.41741
-4.42514
-4.39252
-4.3121
-4.18486
-4.01994
-3.83165
-3.63334
-3.43223
-3.22912
-3.02157
-2.80965
-2.59915
-2.40137
-2.22847
-2.08789
-1.97984
-1.89718
-1.82862
-1.76317
-1.6957
-1.62943
-1.57481
-1.5439
-1.54407
-1.57456
-1.62565
-1.68098
-1.72147
-1.73094
-1.69988
-1.62752
-1.52098
-1.39223
-1.25259
-1.10819
-0.959632
-0.80482
-0.643815
-0.481624
-0.327964
-0.193045
-0.0826323
0.00422463
0.075219
0.14191
0.215597
0.302223
0.400075
0.500715
0.593943
0.673333
0.73888
0.79722
0.858817
0.933833
1.027
1.13529
1.24892
1.35635
1.45
1.52901
1.59952
1.67187
1.75634
1.85773
1.97276
2.09056
2.19727
2.28096
2.33333
2.34975
-2.36145
-2.26237
-2.14857
-2.05717
-2.03442
-2.12082
-2.33432
-2.66784
-3.08779
-3.5437
-3.97677
-4.34026
-4.607
-4.77691
-4.87254
-4.93265
-4.99153
-5.06033
-5.12718
-5.16337
-5.14176
-5.04541
-4.87562
-4.65004
-4.39868
-4.14826
-3.90841
-3.67328
-3.42837
-3.16689
-2.89629
-2.63977
-2.4234
-2.26182
-2.15514
-2.08775
-2.03569
-1.97394
-1.89105
-1.79375
-1.70673
-1.65846
-1.6659
-1.73034
-1.83501
-1.951
-2.04284
-2.0821
-2.0525
-1.95509
-1.80548
-1.62992
-1.45172
-1.27937
-1.10799
-0.925204
-0.725351
-0.51517
-0.315051
-0.147556
-0.0247078
0.0548225
0.106776
0.154557
0.222668
0.323283
0.452064
0.588346
0.70797
0.796994
0.854901
0.895821
0.941717
1.01572
1.12853
1.27414
1.43006
1.57027
1.67926
1.75539
1.81235
1.87243
1.95976
2.08616
2.24649
2.41834
2.5746
2.69613
2.77213
2.79863
-2.74352
-2.54023
-2.298
-2.06636
-1.93359
-1.98412
-2.24798
-2.71856
-3.33404
-4.01047
-4.63356
-5.12656
-5.44136
-5.58729
-5.60973
-5.59981
-5.63812
-5.74094
-5.88024
-5.98393
-5.99775
-5.88352
-5.64575
-5.31626
-4.96331
-4.64691
-4.37668
-4.13037
-3.85789
-3.53606
-3.17194
-2.81914
-2.53814
-2.35538
-2.27255
-2.25485
-2.25536
-2.21376
-2.10572
-1.94184
-1.7814
-1.69128
-1.7041
-1.82665
-2.02649
-2.25421
-2.43833
-2.53078
-2.50116
-2.35619
-2.12568
-1.86975
-1.64074
-1.44746
-1.27105
-1.06846
-0.820046
-0.532515
-0.253449
-0.0360661
0.0973009
0.146831
0.146038
0.139615
0.184614
0.305454
0.494912
0.701603
0.86768
0.967058
0.996955
0.988813
0.985676
1.04325
1.18432
1.39963
1.63523
1.83055
1.95719
2.01067
2.02196
2.03502
2.10816
2.26689
2.50478
2.76965
3.00296
3.17784
3.28308
3.32457
-3.24792
-2.87402
-2.43209
-1.93318
-1.56885
-1.54031
-1.86405
-2.56069
-3.49261
-4.55414
-5.47778
-6.1696
-6.51905
-6.57569
-6.39371
-6.19774
-6.19203
-6.36927
-6.68479
-6.93419
-7.0384
-6.89984
-6.54828
-6.01662
-5.47567
-5.07945
-4.81088
-4.62553
-4.35884
-3.96654
-3.43173
-2.89554
-2.51192
-2.3055
-2.29663
-2.39625
-2.53615
-2.54981
-2.40135
-2.08555
-1.75542
-1.57647
-1.58493
-1.81227
-2.17847
-2.62085
-2.9665
-3.15595
-3.11664
-2.88118
-2.48324
-2.07153
-1.77906
-1.592
-1.47254
-1.27843
-0.971812
-0.538414
-0.103763
0.195666
0.339295
0.31057
0.192673
0.0499046
0.036639
0.188112
0.512263
0.872673
1.12278
1.23652
1.19314
1.07397
0.941595
0.949973
1.13264
1.49539
1.8979
2.18924
2.34
2.32622
2.22856
2.11065
2.13291
2.33324
2.72384
3.16607
3.5151
3.75948
3.88541
3.9559
-3.98693
-3.30582
-2.64838
-1.60652
-0.72108
-0.589922
-0.943936
-2.06493
-3.46552
-5.29743
-6.65697
-7.70687
-8.01975
-7.90916
-7.19939
-6.52333
-6.48424
-6.8003
-7.58644
-8.0955
-8.43069
-8.22507
-7.71243
-6.73274
-5.78206
-5.33073
-5.12785
-5.24054
-5.04343
-4.60506
-3.69642
-2.75528
-2.23362
-1.97435
-2.16776
-2.48296
-3.00216
-3.12281
-2.94152
-2.25359
-1.51549
-1.19567
-1.15449
-1.60193
-2.22478
-3.1309
-3.72377
-4.11478
-4.0189
-3.64448
-2.86503
-2.10607
-1.77007
-1.64371
-1.78607
-1.65493
-1.31069
-0.550675
0.236083
0.647193
0.824931
0.598181
0.270611
-0.230781
-0.353014
-0.182307
0.473029
1.19826
1.57
1.72805
1.4943
1.17407
0.690827
0.601803
0.817802
1.53017
2.31703
2.74686
2.95632
2.75921
2.46105
1.9813
1.8982
2.12262
2.86576
3.69395
4.17535
4.50917
4.56514
4.73382
-5.20169
-3.70377
-3.41837
-1.05444
1.21321
1.05951
1.08099
-1.1662
-2.81699
-6.72058
-8.28171
-10.3051
-10.1298
-10.105
-7.95603
-5.93113
-6.26451
-6.55392
-8.88658
-9.50667
-10.6012
-9.99181
-9.54847
-7.4064
-5.36868
-5.22351
-4.98974
-6.30094
-6.07476
-5.92002
-4.00709
-2.01012
-1.57663
-0.990505
-1.86269
-2.27509
-4.04122
-4.12975
-4.21036
-2.49293
-0.672255
-0.412657
-0.0194646
-1.13804
-1.86222
-4.09105
-4.77073
-5.77374
-5.32119
-4.98999
-3.21627
-1.53046
-1.45811
-1.30737
-2.49236
-2.3372
-2.24722
-0.600344
1.11795
1.43587
1.89413
1.03208
0.599973
-1.05633
-1.16337
-1.24949
0.334223
2.03392
2.32597
2.78486
1.92108
1.50999
-0.126514
-0.184515
-0.210779
1.45866
3.25122
3.62271
4.15908
3.33868
2.956
1.28172
1.22161
1.1659
2.88597
4.72194
5.04883
5.65972
5.08338
5.76465
-7.7566
-2.35549
-7.18134
-0.363592
6.63447
2.45702
6.37321
-1.12594
1.07595
-11.5165
-9.24047
-16.0688
-12.023
-15.3589
-8.53361
-1.94249
-6.10758
-3.36471
-12.6523
-10.2341
-15.2248
-11.5189
-13.8301
-7.92915
-2.22938
-5.24316
-2.62612
-9.57451
-7.00243
-9.76607
-4.43799
0.987266
-1.13861
2.09416
-2.21886
-0.116998
-7.49524
-5.14719
-8.06755
-2.88002
2.41985
0.178926
3.29348
-1.24113
0.668005
-7.28107
-5.3511
-9.52772
-6.44776
-8.41169
-3.4399
1.36959
-1.25796
0.95348
-5.12742
-2.92453
-5.4246
-0.751789
4.01745
2.02352
4.86566
0.847969
2.69326
-4.1117
-2.00279
-4.72011
0.0294731
4.89766
2.84273
5.74737
1.69704
3.61156
-3.2158
-1.0155
-3.68009
1.21086
6.23275
4.26209
7.31652
3.2888
5.31177
-1.74129
0.539559
-2.34698
2.7401
7.92382
5.51414
8.52061
3.79151
7.62983
-17.1468
13.7199
-27.7108
0.0677023
28.1485
-7.80042
28.1035
-15.0553
26.2727
-37.7234
2.91092
-37.4917
-3.28699
-35.2455
-8.77437
17.5347
-15.8986
17.148
-33.2751
-0.293002
-32.3724
-4.38183
-29.9378
-8.16297
13.4568
-13.372
13.511
-26.5584
-0.24748
-25.2651
-5.00972
14.8574
-8.41803
16.0439
-11.8135
15.6915
-24.9562
1.42075
-23.6013
-3.43012
16.3695
-6.94267
17.62
-10.6246
17.3927
-24.6983
2.86062
-23.7327
-0.312622
-21.8223
-3.43133
14.9774
-8.02752
15.1537
-19.6927
3.25883
-18.9325
-1.04368
16.6543
-4.35435
17.7137
-7.78042
17.2413
-20.0046
4.106
-18.9446
-0.447584
17.7291
-3.78375
18.7235
-7.11781
18.2999
-19.3063
5.15758
-18.0306
0.773222
19.2823
-2.33582
20.671
-5.47523
20.7359
-18.2061
7.29749
-17.3428
2.45419
22.0593
-1.82059
22.5198
-9.83833
14.7702
28839.4
28803.5
28767.4
28731
28694.4
28657.5
28620.4
28583.2
28545.7
28508.2
28470.5
28432.7
28394.8
28356.9
28319
0.40407
0.393168
0.376881
0.355836
0.330861
0.302858
0.272699
0.241157
0.208861
0.176278
0.143721
0.111367
0.0792828
0.0474508
0.0157954
0.679625
0.661132
0.633316
0.59735
0.554742
0.507108
0.455992
0.402731
0.34839
0.293743
0.239291
0.185302
0.131856
0.0788934
0.0262588
0.965137
0.938421
0.897902
0.845505
0.783642
0.714837
0.641429
0.565387
0.48823
0.41102
0.334406
0.2587
0.18395
0.110011
0.0366076
1.2654
1.22941
1.17427
1.10303
1.0194
0.927092
0.829437
0.729111
0.628091
0.527677
0.4286
0.331137
0.235232
0.140592
0.04677
1.58656
1.53952
1.4667
1.37293
1.26378
1.14464
1.02007
0.893494
0.767316
0.642975
0.52116
0.402003
0.285243
0.170355
0.0566504
1.93648
1.87545
1.78013
1.65819
1.51812
1.36758
1.21262
1.05743
0.904671
0.755721
0.611043
0.470459
0.333372
0.19893
0.0661254
2.32582
2.24585
2.12031
1.9617
1.78297
1.59494
1.40531
1.21887
1.03816
0.86416
0.69681
0.5354
0.378847
0.22586
0.0750444
2.76953
2.66225
2.49391
2.28564
2.05736
1.824
1.5948
1.3745
1.16487
0.965899
0.776602
0.595463
0.420742
0.250612
0.0832328
3.28937
3.14025
2.90792
2.63007
2.33736
2.04928
1.77555
1.51946
1.28085
1.05791
0.84819
0.649079
0.458025
0.272602
0.090502
3.91962
3.70128
3.36732
2.98939
2.61313
2.26069
1.93894
1.64706
1.38117
1.13667
0.909127
0.694602
0.489654
0.291255
0.0966683
4.7269
4.37651
3.86954
3.34586
2.8648
2.44158
2.07269
1.74879
1.46015
1.19846
0.957012
0.730516
0.514714
0.306083
0.101579
5.87765
5.20887
4.38903
3.65884
3.05808
2.56811
2.16158
1.81534
1.51222
1.23998
0.989925
0.755715
0.532586
0.316777
0.10514
7.82124
6.19233
4.82022
3.84254
3.14043
2.61121
2.19026
1.83883
1.53341
1.25932
1.00697
0.769808
0.54312
0.323288
0.107343
11.6017
6.91805
4.85666
3.75051
3.04983
2.54618
2.14956
1.81635
1.52329
1.25689
1.00878
0.773402
0.546782
0.325903
0.108282
-0.081543
-0.246356
-0.416449
-0.5957
-0.788584
-1.00057
-1.23872
-1.51278
-1.83703
-2.2343
-2.74466
-3.44751
-4.52459
-6.46385
-10.7928
-0.0760339
-0.229549
-0.387468
-0.552943
-0.729474
-0.921093
-1.13259
-1.36979
-1.6398
-1.95086
-2.31034
-2.71396
-3.09685
-3.10926
-1.04988
-0.0695195
-0.209682
-0.353236
-0.502505
-0.659883
-0.827804
-1.00858
-1.20397
-1.41398
-1.63376
-1.84539
-1.99488
-1.92626
-1.19318
1.43938
-0.0622233
-0.187457
-0.315032
-0.446431
-0.582965
-0.725573
-0.874404
-1.02796
-1.18129
-1.32226
-1.42367
-1.42741
-1.2168
-0.59639
0.53061
-0.054379
-0.163601
-0.274167
-0.386785
-0.501823
-0.619011
-0.736922
-0.852043
-0.957099
-1.03814
-1.0698
-1.00901
-0.791572
-0.351502
0.287193
-0.0462113
-0.138811
-0.231871
-0.325452
-0.419182
-0.511939
-0.601363
-0.683079
-0.749504
-0.788197
-0.780119
-0.699539
-0.52079
-0.244549
0.0319368
-0.0379196
-0.113696
-0.189207
-0.264009
-0.337206
-0.407171
-0.471145
-0.524707
-0.561104
-0.570632
-0.540712
-0.45829
-0.317632
-0.137725
0.0130645
-0.0296699
-0.08876
-0.147027
-0.203668
-0.257462
-0.306548
-0.348143
-0.378238
-0.391321
-0.380378
-0.337685
-0.257456
-0.141674
-0.010619
0.0791044
-0.0215911
-0.0643885
-0.105966
-0.145288
-0.180969
-0.211105
-0.233109
-0.243565
-0.238196
-0.212115
-0.160659
-0.0812556
0.023739
0.14525
0.279376
-0.0137768
-0.0408559
-0.0664589
-0.0894209
-0.108303
-0.121284
-0.12607
-0.11986
-0.0994319
-0.061431
-0.00298851
0.0772344
0.177741
0.292428
0.402273
-0.00628872
-0.0183399
-0.0287717
-0.0363679
-0.0397127
-0.0371271
-0.0266372
-0.00600302
0.0271528
0.0750928
0.139607
0.221704
0.321955
0.443039
0.601629
0.000837281
0.00306099
0.00696123
0.0137526
0.0247846
0.0415709
0.0657839
0.0991889
0.143497
0.20014
0.270042
0.353637
0.45175
0.567684
0.704526
0.00758543
0.0233074
0.0407024
0.0609497
0.0853123
0.115143
0.151856
0.196842
0.251305
0.316014
0.391018
0.475567
0.569214
0.677891
0.838773
0.0139543
0.0424021
0.0724794
0.105312
0.142071
0.183969
0.23222
0.28795
0.352028
0.42477
0.50542
0.591261
0.676287
0.751926
0.83438
0.0199524
0.0603755
0.10236
0.14697
0.195291
0.248419
0.307428
0.373298
0.446769
0.528067
0.616269
0.707604
0.789923
0.821306
0.630785
0.025594
0.0772746
0.130436
0.186077
0.245204
0.308821
0.377913
0.453406
0.536109
0.626602
0.724995
0.830294
0.938977
1.04487
1.17101
0.030897
0.0931556
0.156809
0.22279
0.292031
0.36546
0.443995
0.528551
0.620078
0.719688
0.828979
0.950726
1.09003
1.25445
1.43653
0.035881
0.108079
0.181584
0.257265
0.335983
0.418593
0.505941
0.5989
0.698472
0.806087
0.924371
1.05906
1.22371
1.45188
1.83493
0.0405661
0.122106
0.204867
0.289657
0.377269
0.468477
0.564036
0.664702
0.771324
0.885117
1.00842
1.14669
1.31337
1.54184
1.91234
0.0449718
0.135297
0.226762
0.320118
0.416093
0.515383
0.618633
0.726418
0.83924
0.957585
1.08215
1.21467
1.3602
1.53329
1.76759
0.0491166
0.147707
0.247365
0.348789
0.452653
0.559584
0.670129
0.784683
0.903369
1.02578
1.15044
1.27373
1.38794
1.48235
1.59017
0.0530176
0.159388
0.266762
0.375796
0.487121
0.601322
0.71889
0.84013
0.964959
1.09245
1.21975
1.3392
1.4295
1.42221
1.04581
0.0566897
0.170386
0.285029
0.401243
0.519632
0.640769
0.765153
0.893135
1.02475
1.1593
1.29458
1.42504
1.53888
1.61849
1.69264
0.0601463
0.180738
0.302228
0.42521
0.550277
0.67801
0.808971
0.943674
1.08253
1.2257
1.37282
1.52254
1.6721
1.81868
1.96324
0.0633995
0.190481
0.318412
0.447763
0.579114
0.713061
0.850245
0.991385
1.13737
1.2894
1.44934
1.62027
1.80749
2.02039
2.28231
0.0664609
0.199648
0.333635
0.468962
0.606189
0.745917
0.888829
1.03579
1.18805
1.34765
1.51829
1.70681
1.92513
2.18819
2.48042
0.0693425
0.208275
0.34795
0.488875
0.631573
0.776614
0.924659
1.07658
1.23369
1.39829
1.5749
1.77279
2.0118
2.33586
2.8538
0.0720574
0.216399
0.361423
0.507591
0.655376
0.805278
0.95786
1.11382
1.27417
1.44066
1.61681
1.81036
2.0395
2.34906
2.85668
0.0746195
0.224064
0.374127
0.52522
0.677753
0.832136
0.988774
1.14807
1.31044
1.47638
1.64672
1.82334
2.01146
2.22487
2.48593
0.0770435
0.231316
0.386142
0.541885
0.698894
0.857485
1.0179
1.18024
1.34428
1.50911
1.67235
1.82849
1.96593
2.06773
2.17398
0.0793438
0.238197
0.397546
0.557709
0.718985
0.881621
1.04576
1.2113
1.37763
1.543
1.703
1.84676
1.94522
1.90764
1.38007
0.081534
0.244751
0.40841
0.572798
0.73818
0.904774
1.0727
1.24186
1.4117
1.58066
1.74503
1.89664
2.01904
2.08795
2.1366
0.0836262
0.251012
0.418795
0.587236
0.756583
0.92706
1.09885
1.27202
1.44644
1.62156
1.79599
1.96696
2.1301
2.28246
2.43385
0.0856313
0.257013
0.42875
0.601083
0.774249
0.948499
1.1241
1.30137
1.48075
1.66298
1.84944
2.04286
2.24873
2.47779
2.75598
0.0875591
0.262782
0.43832
0.614388
0.791215
0.969059
1.14826
1.32931
1.51314
1.70153
1.89812
2.11025
2.35137
2.63916
2.95871
0.0894195
0.268349
0.447549
0.627207
0.807525
0.988742
1.17119
1.3554
1.54243
1.73443
1.93609
2.15766
2.4217
2.77862
3.35234
0.0912228
0.273743
0.456487
0.639607
0.823261
1.00763
1.19295
1.37961
1.56833
1.7607
1.96032
2.17574
2.42763
2.76769
3.33389
0.0929796
0.278998
0.465192
0.651674
0.838552
1.02592
1.21386
1.40245
1.59176
1.78198
1.97367
2.16864
2.37243
2.59989
2.8725
0.0947008
0.284147
0.473724
0.663508
0.853553
1.04387
1.23438
1.42484
1.61462
1.80231
1.98484
2.15557
2.30088
2.4009
2.50062
0.0963964
0.289222
0.48214
0.6752
0.868417
1.06175
1.25501
1.44777
1.63897
1.82627
2.0043
2.16032
2.26086
2.20226
1.58168
0.0980749
0.294248
0.490487
0.686822
0.883255
1.07973
1.27607
1.47185
1.6661
1.85672
2.03915
2.20374
2.3314
2.39404
2.42861
0.0997426
0.299245
0.498795
0.698417
0.898116
1.09787
1.29758
1.49704
1.69581
1.89292
2.08647
2.27298
2.44716
2.60546
2.75959
0.101404
0.304224
0.507081
0.709998
0.912993
1.11609
1.31933
1.5228
1.72671
1.93162
2.13877
2.35095
2.57404
2.8199
3.11736
0.103062
0.309195
0.515355
0.721563
0.927851
1.13428
1.34099
1.5483
1.757
1.96883
2.18764
2.42147
2.68523
2.99867
3.3446
0.104719
0.314162
0.523622
0.733114
0.942664
1.15234
1.36229
1.57292
1.78517
2.00124
2.22617
2.47135
2.76201
3.15504
3.79063
0.106378
0.319135
0.531896
0.744663
0.957442
1.17026
1.38319
1.59648
1.81075
2.02755
2.25075
2.48978
2.76781
3.14313
3.77142
0.108041
0.324121
0.540193
0.756243
0.972246
1.18816
1.40392
1.61943
1.83462
2.04948
2.26443
2.4813
2.70613
2.95572
3.25525
0.109711
0.329129
0.548532
0.767895
0.987164
1.20623
1.42488
1.64268
1.85877
2.07141
2.27688
2.46744
2.62735
2.73378
2.83742
0.111388
0.334163
0.556926
0.779651
1.00227
1.22465
1.44649
1.66717
1.88539
2.09835
2.29979
2.47502
2.58575
2.51394
1.80161
0.113073
0.339221
0.565375
0.791519
1.0176
1.24351
1.46896
1.69343
1.91572
2.13334
2.341
2.52754
2.67099
2.73904
2.77341
0.11476
0.344291
0.573857
0.803467
1.03311
1.26273
1.4922
1.72126
1.94933
2.17531
2.39695
2.61016
2.80864
2.98768
3.15803
0.116443
0.349354
0.582336
0.815431
1.04868
1.28212
1.5158
1.74983
1.98447
2.22033
2.45883
2.70315
2.9599
3.24247
3.58411
0.118115
0.354383
0.590762
0.827328
1.06417
1.30139
1.53921
1.77804
2.01881
2.26356
2.51675
2.78763
3.09334
3.45637
3.85518
0.119767
0.35935
0.599084
0.839072
1.07943
1.32032
1.56199
1.80498
2.05044
2.30098
2.56246
2.84806
3.18706
3.64559
4.38744
0.121388
0.364227
0.607255
0.850597
1.09438
1.33875
1.58392
1.83027
2.07861
2.33085
2.59151
2.87155
3.19788
3.63822
4.37269
0.122971
0.368989
0.615235
0.861851
1.10897
1.35669
1.60509
1.85423
2.10413
2.35493
2.60718
2.86305
3.12962
3.42672
3.78531
0.124505
0.373607
0.622982
0.872795
1.12318
1.37421
1.62582
1.87772
2.12909
2.37805
2.62044
2.84727
3.04023
3.17267
3.30354
0.12598
0.37805
0.63045
0.883378
1.13699
1.39137
1.64641
1.90163
2.15577
2.40578
2.64458
2.85516
2.99291
2.91986
2.10008
0.127382
0.38228
0.637576
0.893519
1.15032
1.40813
1.66692
1.92636
2.18536
2.44134
2.6884
2.91378
3.09204
3.18573
3.24415
0.128695
0.386246
0.644276
0.903097
1.163
1.42426
1.68706
1.95143
2.2171
2.48315
2.74734
3.00527
3.24996
3.47622
3.69639
0.129902
0.389894
0.650451
0.911954
1.17479
1.43938
1.70615
1.97566
2.24864
2.52627
2.81069
3.1061
3.42076
3.77107
4.19724
0.130983
0.393164
0.655993
0.919916
1.18541
1.45302
1.72341
1.99754
2.277
2.56472
2.86648
3.19366
3.5669
4.01335
4.50972
0.131919
0.395997
0.660796
0.92682
1.19461
1.46478
1.73812
2.01577
2.29966
2.59346
2.90468
3.24937
3.66228
4.2211
5.1166
0.132694
0.398341
0.664773
0.93253
1.20219
1.47439
1.74989
2.02973
2.3155
2.61015
2.91973
3.25781
3.65644
4.19518
5.08574
0.133292
0.400154
0.66785
0.936951
1.20805
1.48175
1.75871
2.03961
2.32522
2.61651
2.91506
3.22433
3.55336
3.92508
4.37087
0.133703
0.401399
0.669972
0.940016
1.21213
1.4869
1.76484
2.04627
2.33104
2.61788
2.90302
3.17726
3.42068
3.60368
3.79456
0.133914
0.402047
0.671094
0.941674
1.21441
1.48989
1.76859
2.05067
2.33547
2.62046
2.89862
3.15172
3.33002
3.27692
2.37939
0.133919
0.402071
0.67117
0.941864
1.21482
1.49069
1.77005
2.05321
2.3398
2.62783
2.9117
3.17824
3.40008
3.53666
3.64569
0.13371
0.40145
0.670157
0.940511
1.21324
1.4891
1.76891
2.05342
2.34317
2.6381
2.93687
3.23592
3.52941
3.81565
4.12037
0.133283
0.400166
0.668019
0.937539
1.20951
1.48482
1.76456
2.05004
2.34298
2.64573
2.9619
3.29757
3.66383
4.08189
4.59863
0.132638
0.398221
0.664741
0.932893
1.20348
1.47751
1.75626
2.04153
2.336
2.64408
2.97344
3.33806
3.76236
4.27969
4.87855
0.131784
0.395633
0.660345
0.926576
1.19511
1.46695
1.74347
2.02666
2.31962
2.62768
2.96054
3.33718
3.79636
4.42097
5.40594
0.130739
0.392455
0.654912
0.918682
1.18447
1.45319
1.7261
2.00503
2.2928
2.59408
2.91729
3.2791
3.71551
4.31211
5.29854
0.12953
0.388772
0.648583
0.909409
1.17181
1.43654
1.70458
1.97731
2.25663
2.54528
2.84729
3.16929
3.52348
3.93264
4.40819
0.128197
0.384703
0.641561
0.899061
1.15758
1.41762
1.67984
1.94503
2.21402
2.48722
2.76346
3.03722
3.29331
3.50715
3.74925
0.126789
0.380397
0.634107
0.888024
1.14231
1.39722
1.65306
1.91015
2.16851
2.42708
2.6814
2.9175
3.09251
3.06212
2.24441
0.125362
0.376027
0.626521
0.876747
1.12664
1.3762
1.62544
1.8744
2.1229
2.3699
2.61203
2.84029
3.03437
3.16388
3.289
0.123979
0.371784
0.619132
0.865716
1.11124
1.35542
1.59805
1.83901
2.07833
2.31611
2.55234
2.78688
3.02109
3.26877
3.59745
0.122702
0.367864
0.612284
0.855439
1.09678
1.33574
1.57183
1.80479
2.03487
2.2634
2.49385
2.73376
2.99849
3.31746
3.7395
0.121597
0.364464
0.606324
0.846438
1.08399
1.31807
1.54782
1.77259
1.99249
2.20938
2.42882
2.66345
2.93826
3.29463
3.77372
0.120722
0.361768
0.601584
0.839233
1.07361
1.30344
1.52729
1.74379
1.95222
2.15361
2.35325
2.56529
2.82141
3.18662
3.78723
0.120124
0.359931
0.598357
0.834306
1.06642
1.29298
1.51187
1.72063
1.91684
2.09907
2.2691
2.43656
2.62883
2.9152
3.49277
0.119835
0.359055
0.596855
0.832052
1.06309
1.28786
1.50349
1.70619
1.89119
2.05303
2.18675
2.29066
2.37093
2.44159
2.46536
0.119859
0.359168
0.597165
0.832692
1.06412
1.28908
1.5041
1.70406
1.88162
2.02651
2.12512
2.16121
2.11973
2.00059
1.88655
0.120169
0.360193
0.599193
0.836178
1.06965
1.29722
1.51516
1.71748
1.89474
2.03214
2.10693
2.08566
1.92249
1.55608
0.856704
0.120696
0.361931
0.602618
0.842108
1.07926
1.31206
1.53706
1.74829
1.93554
2.08125
2.15547
2.10871
1.86638
1.34283
0.531051
0.121331
0.364048
0.606872
0.849658
1.09188
1.33232
1.56851
1.79576
2.0052
2.18002
2.28804
2.26763
2.00559
1.32976
0.195412
0.121928
0.36609
0.611147
0.857594
1.10573
1.35551
1.60617
1.8556
2.09891
2.32521
2.50984
2.59439
2.43215
1.63511
-0.840391
0.12231
0.367508
0.614453
0.864345
1.11844
1.37808
1.64467
1.91968
2.20444
2.49937
2.80119
3.09255
3.29952
3.10601
1.08932
0.122289
0.367709
0.615704
0.868165
1.12729
1.39579
1.67729
1.977
2.30295
2.66879
3.09991
3.6494
4.44488
5.84265
8.98369
8.81739
5.53212
4.11299
3.32834
2.80074
2.396
2.05849
1.76166
1.4913
1.23906
0.999584
0.769214
0.545241
0.325521
0.108242
0.473685
2.65653
2.90639
2.73484
2.47579
2.20623
1.9437
1.69118
1.44804
1.21285
0.9841
0.760409
0.540519
0.323273
0.107586
-1.5212
1.12338
1.99237
2.20208
2.15812
2.01159
1.82197
1.6142
1.39927
1.18216
0.965095
0.748957
0.533955
0.319937
0.106571
-0.258424
0.823263
1.53611
1.84546
1.91172
1.8469
1.71288
1.54221
1.35201
1.15143
0.945437
0.736711
0.526702
0.316148
0.105398
-0.105731
0.779244
1.36005
1.65766
1.75636
1.73029
1.62926
1.48378
1.31196
1.12447
0.927668
0.725352
0.519823
0.312491
0.104255
0.188027
0.946439
1.38066
1.60802
1.68768
1.66574
1.57651
1.44366
1.28278
1.10397
0.913725
0.716221
0.514194
0.309463
0.103303
1.11874
1.33878
1.54494
1.66099
1.68959
1.64795
1.55408
1.423
1.26606
1.09142
0.90482
0.710233
0.510443
0.307427
0.10266
1.646
1.74078
1.77181
1.77472
1.74033
1.66644
1.55749
1.4203
1.26163
1.08719
0.901464
0.707862
0.508934
0.306609
0.102404
2.5891
2.1871
2.01825
1.91442
1.81852
1.70929
1.58052
1.43254
1.26817
1.0908
0.903587
0.709196
0.509788
0.3071
0.102565
2.89872
2.47155
2.21958
2.04867
1.90599
1.76572
1.6169
1.45618
1.28376
1.10126
0.910706
0.714024
0.512927
0.308878
0.103142
3.02239
2.63436
2.36467
2.16335
1.99183
1.82812
1.66156
1.48796
1.30635
1.11734
0.922092
0.721929
0.518124
0.311833
0.104101
3.05847
2.71504
2.46233
2.25738
2.07227
1.8925
1.71115
1.52531
1.33412
1.13777
0.936907
0.732376
0.525056
0.315793
0.10539
3.02608
2.73278
2.52687
2.33767
2.14904
1.958
1.76387
1.5664
1.3655
1.16135
0.954288
0.744776
0.533347
0.320552
0.106941
2.80096
2.68986
2.57984
2.41764
2.22753
2.02565
1.81894
1.60988
1.39917
1.18698
0.973388
0.758523
0.542598
0.325883