/*--------------------------------*- C++ -*----------------------------------*\
| =========                 |                                                 |
| \\      /  F ield         | OpenFOAM: The Open Source CFD Toolbox           |
|  \\    /   O peration     | Version:  5.x                                   |
|   \\  /    A nd           | Web:      www.OpenFOAM.org                      |
|    \\/     M anipulation  |                                                 |
\*---------------------------------------------------------------------------*/
FoamFile
{
    version     2.0;
    format      ascii;
    class       volScalarField;
    location    "0.5";
    object      gradTy;
}
// * * * * * * * * * * * * * * * * * * * * * * * * * * * * * * * * * * * * * //

dimensions      [0 -1 0 1 0 0 0];

internalField   nonuniform List<scalar> 
6300
(
32267.5
32202.5
32137.6
32072.9
32008.6
31944.7
31881.2
31818.4
31756.3
31694.9
31634.4
31574.9
31516.5
31459.2
31403.2
-0.0651855
-0.195876
-0.327485
-0.460523
-0.595358
-0.732135
-0.870714
-1.01061
-1.15094
-1.29044
-1.42745
-1.56007
-1.68631
-1.80435
-1.91278
-0.10828
-0.325397
-0.544152
-0.765467
-0.990018
-1.21812
-1.44961
-1.68372
-1.91901
-2.15331
-2.38375
-2.60697
-2.81937
-3.01763
-3.19919
-0.150805
-0.453263
-0.758212
-1.0671
-1.38103
-1.70059
-2.02573
-2.35548
-2.68789
-3.01984
-3.34708
-3.66446
-3.96634
-4.24738
-4.5034
-0.192459
-0.578588
-0.968264
-1.36359
-1.76626
-2.17735
-2.59704
-3.02439
-3.457
-3.8908
-4.31998
-4.73712
-5.13383
-5.50183
-5.83451
-0.232888
-0.700306
-1.17256
-1.6526
-2.1429
-2.64527
-3.16044
-3.68774
-4.22458
-4.76604
-5.30452
-5.82976
-6.3295
-6.79104
-7.20373
-0.27166
-0.817126
-1.36897
-1.93117
-2.50729
-3.10015
-3.71144
-4.34122
-4.98716
-5.64382
-6.3018
-6.94735
-7.56276
-8.12839
-8.62666
-0.30825
-0.927483
-1.55487
-2.19564
-2.8547
-3.5363
-4.24361
-4.97811
-5.73855
-6.51972
-7.31087
-8.09433
-8.84496
-9.53217
-10.1259
-0.342074
-1.0296
-1.72722
-2.44162
-3.17931
-3.94639
-4.74821
-5.58859
-6.46866
-7.38497
-8.32687
-9.27323
-10.1896
-11.0283
-11.7365
-0.372495
-1.12151
-1.88265
-2.66411
-3.47423
-4.3214
-5.21382
-6.15886
-7.16188
-8.22386
-9.3375
-10.4811
-11.6106
-12.6536
-13.5149
-0.398857
-1.20121
-2.01759
-2.8577
-3.73179
-4.65077
-5.6263
-6.67056
-7.79539
-9.01018
-10.3171
-11.7018
-13.1169
-14.4591
-15.557
-0.420544
-1.26677
-2.12861
-3.01707
-3.94412
-4.92316
-5.96953
-7.10101
-8.33812
-9.70336
-11.2179
-12.891
-14.6945
-16.5077
-18.0337
-0.437051
-1.31662
-2.21282
-3.13757
-4.1041
-5.12776
-6.22705
-7.42512
-8.7518
-10.2462
-11.9587
-13.9486
-16.2612
-18.8417
-21.2751
-0.448053
-1.34971
-2.2683
-3.21602
-4.20659
-5.25626
-6.38518
-7.61982
-8.99682
-10.5698
-12.4212
-14.682
-17.5584
-21.3209
-25.9349
-0.453463
-1.36577
-2.29446
-3.25133
-4.24964
-5.30502
-6.43698
-7.67137
-9.0449
-10.6139
-12.473
-14.7985
-17.9681
-22.9463
-32.7767
31353
31308.3
31264.6
31221.9
31180.3
31139.7
31100.3
31061.9
31024.7
30988.6
30953.7
30920
30887.4
30856
30825.7
30796.6
30768.7
30741.9
30716.1
30691.5
30667.9
30645.3
30623.6
30602.9
30583.1
30564.2
30546.1
30528.7
30512.1
30496.2
30480.8
30466.1
30452
30438.3
30425.1
30412.3
30399.9
30387.9
30376.1
30364.6
30353.3
30342.2
30331.3
30320.4
30309.7
30298.9
30288.1
30277.3
30266.4
30255.4
30244.2
30232.9
30221.2
30209.3
30197.1
30184.5
30171.5
30158.1
30144.1
30129.6
30114.6
30098.9
30082.6
30065.5
30047.7
30029.1
30009.6
29989.3
29968.1
29945.9
29922.7
29898.4
29873.2
29846.8
29819.3
29790.6
29760.8
29729.8
29697.6
29664.2
29629.5
29593.7
29556.6
29518.3
29478.8
29438.2
29396.3
29353.3
29309.2
29264.1
-2.00263
-2.07707
-2.14453
-2.20549
-2.26043
-2.30976
-2.3536
-2.39175
-2.42368
-2.44862
-2.4657
-2.47407
-2.47309
-2.4624
-2.44195
-2.41195
-2.37286
-2.32525
-2.26978
-2.20713
-2.13802
-2.06316
-1.98332
-1.89927
-1.8118
-1.72168
-1.62966
-1.53639
-1.44249
-1.34847
-1.25481
-1.16186
-1.06993
-0.979234
-0.889899
-0.80198
-0.715469
-0.630307
-0.546405
-0.463651
-0.381909
-0.301022
-0.220803
-0.141029
-0.0614457
0.018219
0.0982425
0.178884
0.260369
0.342871
0.426511
0.511356
0.597424
0.684694
0.773102
0.862551
0.952911
1.04402
1.13568
1.22771
1.31987
1.41195
1.50369
1.59482
1.685
1.77383
1.86085
1.94555
2.0274
2.10583
2.18033
2.25033
2.3153
2.37465
2.42778
2.47405
2.51287
2.54366
2.56599
2.57954
2.58409
2.57948
2.56554
2.54203
2.50862
2.46495
2.41064
2.34549
2.26951
2.18302
-3.34903
-3.47271
-3.58446
-3.68527
-3.77626
-3.85828
-3.93167
-3.9961
-4.05056
-4.09355
-4.12334
-4.13833
-4.13729
-4.11957
-4.08513
-4.03444
-3.96837
-3.88799
-3.79445
-3.68891
-3.57256
-3.4466
-3.31228
-3.17095
-3.02394
-2.87258
-2.71813
-2.56172
-2.40437
-2.24696
-2.09025
-1.93486
-1.78131
-1.62993
-1.48095
-1.33443
-1.19034
-1.04854
-0.908885
-0.771173
-0.635187
-0.500675
-0.367328
-0.234772
-0.102567
0.0297687
0.16273
0.296778
0.432308
0.569621
0.708916
0.850296
0.993784
1.13933
1.28684
1.43613
1.58699
1.73913
1.89223
2.04595
2.19992
2.35378
2.50713
2.65955
2.81047
2.95925
3.1051
3.24713
3.3844
3.516
3.64101
3.75856
3.86775
3.96764
4.05719
4.13529
4.20085
4.25288
4.29062
4.31356
4.32141
4.31401
4.29116
4.25249
4.19742
4.12519
4.03506
3.92648
3.79934
3.65412
-4.71317
-4.88519
-5.03976
-5.17885
-5.30465
-5.41889
-5.52235
-5.61455
-5.69374
-5.75728
-5.80214
-5.82553
-5.8254
-5.80074
-5.75163
-5.67902
-5.58445
-5.46965
-5.33637
-5.18628
-5.02096
-4.84208
-4.65141
-4.45085
-4.24239
-4.02799
-3.80947
-3.58847
-3.36641
-3.14451
-2.92384
-2.7053
-2.48961
-2.27726
-2.06853
-1.86347
-1.66195
-1.46376
-1.26863
-1.07627
-0.886398
-0.698701
-0.512762
-0.328051
-0.143917
0.0403843
0.225621
0.412512
0.601657
0.793497
0.9883
1.18619
1.38716
1.59115
1.79799
2.00746
2.21922
2.43286
2.6479
2.86382
3.08011
3.2963
3.51191
3.72638
3.939
4.14885
4.35478
4.55547
4.74951
4.93554
5.11233
5.27869
5.43347
5.57538
5.70292
5.81442
5.90813
5.9825
6.03637
6.06909
6.08047
6.07057
6.03934
5.98636
5.9107
5.81099
5.68579
5.53394
5.35501
5.14948
-6.10397
-6.32253
-6.51708
-6.69133
-6.84942
-6.99476
-7.129
-7.25147
-7.35925
-7.44774
-7.51174
-7.54653
-7.54879
-7.51711
-7.45196
-7.35528
-7.2297
-7.078
-6.90262
-6.70566
-6.48902
-6.25469
-6.00492
-5.74229
-5.46957
-5.1895
-4.90458
-4.61694
-4.32839
-4.04047
-3.75454
-3.47181
-3.19325
-2.91953
-2.65097
-2.38753
-2.12891
-1.8747
-1.62447
-1.37786
-1.13456
-0.894259
-0.656479
-0.420542
-0.185533
0.0496403
0.286131
0.525012
0.767152
1.01314
1.26329
1.51769
1.77629
2.03894
2.30546
2.57558
2.84885
3.1247
3.40242
3.68127
3.96058
4.2398
4.51845
4.79599
5.07163
5.34421
5.61212
5.87346
6.12619
6.36846
6.59868
6.81552
7.01772
7.20377
7.37171
7.51908
7.64318
7.74154
7.81245
7.85519
7.87003
7.85767
7.81866
7.75272
7.65841
7.53332
7.37469
7.1802
6.94869
6.68054
-7.5321
-7.79376
-8.02287
-8.22629
-8.41174
-8.58577
-8.7517
-8.90866
-9.05162
-9.17261
-9.2626
-9.3136
-9.32033
-9.28099
-9.19712
-9.07256
-8.91207
-8.71996
-8.49952
-8.253
-7.98223
-7.68923
-7.37669
-7.04804
-6.70715
-6.35785
-6.00346
-5.64661
-5.28937
-4.93348
-4.58059
-4.23227
-3.88989
-3.55436
-3.22602
-2.90463
-2.58952
-2.27991
-1.9751
-1.67468
-1.37844
-1.0862
-0.797559
-0.511714
-0.227404
0.0569809
0.343182
0.632805
0.927088
1.22678
1.53215
1.84314
2.15954
2.48113
2.80774
3.13911
3.47474
3.81382
4.15527
4.49799
4.8411
5.18402
5.52647
5.86818
6.2085
6.54607
6.8787
7.20356
7.51765
7.81838
8.1039
8.373
8.62473
8.85772
9.06956
9.25665
9.41462
9.53941
9.62833
9.68073
9.69793
9.68231
9.63593
9.55908
9.44957
9.30307
9.11436
8.87896
8.59431
8.26049
-9.01248
-9.31096
-9.56471
-9.78608
-9.98947
-10.1873
-10.3861
-10.5848
-10.7744
-10.9408
-11.0683
-11.1432
-11.157
-11.1079
-10.9998
-10.8406
-10.639
-10.4019
-10.1332
-9.83455
-9.50678
-9.15129
-8.7711
-8.37091
-7.9564
-7.53314
-7.10553
-6.67654
-6.24813
-5.82193
-5.39982
-4.98397
-4.57646
-4.17868
-3.79094
-3.41255
-3.04212
-2.67809
-2.31932
-1.96539
-1.61646
-1.27287
-0.934546
-0.600615
-0.269328
0.0617565
0.395355
0.733934
1.07928
1.43227
1.79296
2.16084
2.53533
2.91611
3.30318
3.69652
4.09567
4.49948
4.90624
5.31411
5.7218
6.1288
6.53542
6.94218
7.3491
7.75479
8.15617
8.54879
8.9279
9.28973
9.63219
9.95485
10.258
10.5414
10.8022
11.0352
11.2329
11.3879
11.4957
11.5558
11.5719
11.55
11.4958
11.4111
11.2926
11.1322
10.9199
10.6472
10.3094
9.9059
-10.567
-10.8913
-11.1519
-11.3704
-11.5739
-11.7861
-12.0196
-12.2725
-12.529
-12.7637
-12.9483
-13.0593
-13.083
-13.0183
-12.8748
-12.6686
-12.4161
-12.1282
-11.809
-11.4572
-11.0705
-10.6482
-10.1937
-9.71378
-9.21772
-8.7142
-8.20912
-7.70527
-7.20338
-6.70421
-6.20975
-5.72342
-5.24884
-4.78832
-4.34221
-3.90887
-3.48536
-3.06857
-2.65648
-2.24879
-1.84671
-1.45189
-1.06513
-0.685642
-0.310906
0.062954
0.440394
0.825351
1.22048
1.62672
2.04344
2.46904
2.90206
3.34205
3.78958
4.24552
4.70983
5.18086
5.65552
6.13041
6.60335
7.074
7.54395
8.01572
8.49115
8.96937
9.44586
9.91299
10.3625
10.7884
11.1883
11.564
11.9191
12.2564
12.574
12.8636
13.1113
13.3032
13.4304
13.4929
13.499
13.4628
13.3978
13.3103
13.1945
13.0346
12.8108
12.5078
12.1175
11.6391
-12.2305
-12.5622
-12.7981
-12.9751
-13.1444
-13.353
-13.624
-13.9543
-14.3141
-14.6581
-14.9336
-15.1002
-15.1357
-15.0418
-14.8394
-14.5626
-14.2436
-13.8993
-13.5314
-13.13
-12.6851
-12.1915
-11.6527
-11.0799
-10.4898
-9.89753
-9.311
-8.73122
-8.1548
-7.5798
-7.0081
-6.44609
-5.90107
-5.37732
-4.87524
-4.39114
-3.91904
-3.45239
-2.98743
-2.5242
-2.06659
-1.61939
-1.18528
-0.763876
-0.351262
0.0589623
0.474581
0.902102
1.34569
1.80609
2.28116
2.76662
3.25881
3.75719
4.26395
4.78257
5.31439
5.85711
6.40452
6.94961
7.48825
8.02022
8.54987
9.08396
9.62912
10.1863
10.7489
11.3024
11.8309
12.3241
12.7791
13.2023
13.6051
13.9992
14.3857
14.7515
15.0696
15.3106
15.4577
15.5101
15.4862
15.4158
15.3316
15.2489
15.1591
15.0278
14.8147
14.4932
14.0516
13.4914
-14.0616
-14.3697
-14.528
-14.5896
-14.6569
-14.829
-15.1421
-15.5927
-16.1216
-16.6505
-17.0755
-17.3296
-17.3745
-17.2215
-16.9112
-16.5176
-16.1077
-15.7047
-15.3022
-14.8657
-14.3703
-13.8002
-13.161
-12.4715
-11.7654
-11.0731
-10.4036
-9.7528
-9.10465
-8.4511
-7.79296
-7.14474
-6.52313
-5.93554
-5.38277
-4.85649
-4.34521
-3.83412
-3.31617
-2.79183
-2.27173
-1.76828
-1.28732
-0.829624
-0.388312
0.0470887
0.491538
0.955654
1.44662
1.96433
2.50396
3.05453
3.60673
4.16038
4.72137
5.30077
5.90342
6.52679
7.15702
7.77828
8.38291
8.96997
9.54957
10.1364
10.7499
11.3957
12.065
12.7277
13.3503
13.9146
14.4155
14.8699
15.3036
15.7526
16.2266
16.7079
17.1381
17.4529
17.6208
17.6367
17.5397
17.3883
17.2624
17.1974
17.1828
17.1382
16.974
16.6512
16.1559
15.5064
-16.1635
-16.3912
-16.3961
-16.1944
-16.017
-16.1001
-16.4601
-17.1161
-17.9265
-18.7905
-19.4611
-19.8582
-19.8961
-19.6259
-19.1012
-18.4943
-17.9602
-17.508
-17.1205
-16.685
-16.1622
-15.5072
-14.7411
-13.886
-13.0206
-12.215
-11.469
-10.77
-10.0619
-9.3286
-8.5632
-7.80477
-7.09594
-6.44338
-5.85194
-5.30005
-4.77095
-4.22557
-3.65395
-3.05321
-2.45274
-1.88466
-1.35578
-0.871679
-0.416758
0.0222763
0.480263
0.970627
1.50913
2.09107
2.71106
3.34018
3.95261
4.55307
5.15233
5.78556
6.46266
7.18663
7.92248
8.63086
9.30283
9.93036
10.5387
11.1503
11.8238
12.5708
13.39
14.2104
14.9529
15.5955
16.1182
16.566
16.979
17.4687
18.0555
18.7365
19.371
19.8052
20.0006
19.9239
19.6694
19.3217
19.1033
19.0708
19.2471
19.4186
19.3595
19.0551
18.4802
17.7453
-18.7299
-18.7316
-18.5594
-17.7621
-17
-16.9702
-17.3502
-18.4151
-19.6526
-21.2071
-22.239
-22.9022
-22.86
-22.3951
-21.4082
-20.365
-19.6937
-19.2172
-19.0068
-18.6295
-18.1437
-17.3739
-16.449
-15.315
-14.1895
-13.2709
-12.4665
-11.8003
-11.0553
-10.2523
-9.32337
-8.39332
-7.58771
-6.86318
-6.26415
-5.71084
-5.22015
-4.65487
-4.0337
-3.31424
-2.58713
-1.94459
-1.35971
-0.871692
-0.422317
-0.02982
0.422359
0.916283
1.50909
2.16307
2.90506
3.64995
4.31585
4.94758
5.53448
6.20727
6.9545
7.82948
8.72763
9.53597
10.2868
10.9185
11.523
12.075
12.7916
13.6416
14.7133
15.8049
16.6988
17.4484
17.9283
18.3116
18.543
19.0437
19.7478
20.8304
21.8911
22.4998
22.7707
22.4653
21.9315
21.0672
20.6741
20.6416
21.3163
22.0289
22.0962
21.8462
21.0331
20.3126
-22.2033
-21.3197
-21.6203
-19.2765
-16.9259
-17.248
-17.2517
-19.4639
-20.9205
-24.3744
-25.5466
-26.9605
-26.4317
-25.9148
-23.7956
-21.699
-21.146
-20.5428
-21.1331
-20.7301
-20.5341
-19.464
-18.4578
-16.7322
-15.0604
-14.1625
-13.2653
-12.9441
-12.1326
-11.3576
-10.0855
-8.80295
-7.96299
-7.10251
-6.61078
-6.03169
-5.77706
-5.16492
-4.55525
-3.58649
-2.59992
-1.9216
-1.22428
-0.816124
-0.346053
-0.167946
0.304239
0.719459
1.42091
2.10832
3.0949
4.07355
4.72843
5.40681
5.79308
6.52194
7.26254
8.43915
9.66233
10.5242
11.4426
11.9459
12.5831
12.7627
13.5671
14.3933
16.0074
17.6841
18.6524
19.6894
19.8769
20.2751
19.7185
20.3246
20.894
22.9548
25.0607
25.6795
26.3689
25.334
24.6676
22.1325
21.7239
21.1921
23.3291
25.5662
25.2881
25.446
23.4509
23.4809
-28.1613
-22.2005
-28.4865
-20.798
-13.0007
-17.9816
-13.97
-21.5977
-19.3095
-30.8246
-28.5036
-33.8143
-29.9838
-31.74
-26.1486
-20.8082
-22.6692
-20.1482
-24.6884
-22.5319
-24.1822
-21.4618
-21.5019
-18.0713
-14.8164
-15.0529
-13.2341
-14.7938
-13.1572
-13.1788
-10.8625
-8.57512
-8.36769
-6.81073
-7.08317
-5.88532
-6.84881
-5.6715
-5.59395
-3.88438
-2.16876
-1.92587
-0.672341
-0.849647
0.150698
-0.729552
0.268138
0.110414
1.35295
1.62276
3.29627
4.96352
5.10733
6.28682
5.55844
6.81984
6.94286
8.98196
11.1176
11.431
13.1963
12.7806
14.3023
12.5503
14.3113
14.0098
17.2114
20.5827
20.5065
23.1534
21.5209
23.6127
19.2185
21.6567
19.8907
25.0126
30.3696
28.7556
32.4479
27.6696
30.0922
20.1326
22.948
17.8967
25.1945
32.7226
27.8488
32.1433
22.9493
28.6164
-45.6149
-5.44311
-55.4732
-22.4732
9.32812
-31.6614
6.07467
-38.0077
2.18062
-57.1966
-20.4688
-53.8297
-25.4892
-48.1446
-28.1387
-9.5456
-30.5013
-9.58428
-37.8865
-18.8514
-34.1242
-19.4843
-29.5441
-19.1575
-9.54454
-18.9027
-8.33807
-21.2467
-11.7944
-18.3671
-11.5981
-5.35222
-10.7159
-3.88461
-9.673
-2.62673
-11.0038
-4.5947
-8.9832
-4.19118
0.383182
-3.38549
1.94013
-2.57901
3.3556
-3.99559
1.89576
-2.51524
2.68566
-0.884241
3.50675
8.04759
3.99506
9.91451
2.45862
8.75722
3.86407
9.38602
15.1976
10.2476
18.0912
10.826
20.7357
7.27927
18.0254
8.58125
18.1711
28.446
18.4392
32.7795
17.8016
36.2895
8.87868
29.0413
8.96723
26.7299
45.7156
24.1887
50.723
19.6336
53.3451
-0.265901
35.4975
-3.18419
26.7257
57.7345
17.2047
58.2611
1.04534
45.0951
29213.3
29156.4
29098.3
29038.9
28978.3
28916.7
28854.2
28790.9
28726.9
28662.2
28597.1
28531.5
28465.6
28399.4
28333.2
2.07705
1.94879
1.81018
1.66385
1.51252
1.35875
1.20471
1.05209
0.902087
0.755349
0.612088
0.472136
0.335035
0.200112
0.0665499
3.47571
3.25938
3.02542
2.77852
2.52349
2.2648
2.00618
1.75054
1.49979
1.25499
1.01641
0.783672
0.555928
0.331979
0.110393
4.89591
4.58746
4.25347
3.90121
3.53805
3.17069
2.80465
2.44404
2.0915
1.74836
1.41482
1.09014
0.772968
0.461442
0.15342
6.34762
5.94077
5.49952
5.03456
4.55659
4.07508
3.59757
3.12938
2.67375
2.23209
1.80427
1.38904
0.984281
0.58735
0.195241
7.84225
7.32779
6.76864
6.18038
5.57819
4.97508
4.38085
3.80196
3.24193
2.70189
2.18108
1.67737
1.18769
0.708382
0.235416
9.39393
8.75842
8.0659
7.33925
6.59997
5.86552
5.1482
4.45524
3.78986
3.15231
2.54068
1.95159
1.38067
0.823022
0.273438
11.0213
10.2449
9.39625
8.50976
7.61606
6.73807
5.8904
5.08024
4.30948
3.57654
2.87761
2.20752
1.5603
0.929552
0.308743
12.7506
11.8029
10.7638
9.68684
8.61584
7.57978
6.59441
5.6651
4.79067
3.96634
3.18547
2.44046
1.72335
1.02609
0.340714
14.619
13.4517
12.1688
10.8575
9.58019
8.37064
7.24207
6.19452
5.22117
4.31225
3.45716
2.6453
1.86642
1.1107
0.368717
16.6843
15.2144
13.6005
11.9927
10.4754
9.07979
7.80823
6.64927
5.58671
4.60389
3.6853
2.81694
1.98618
1.1815
0.392144
19.06
17.1191
15.0244
13.0364
11.2473
9.66377
8.26095
7.00692
5.87194
4.83085
3.86289
2.95075
2.07971
1.23687
0.410483
22.0092
19.1766
16.3408
13.88
11.8127
10.0663
8.56412
7.24475
6.06262
4.98421
3.9843
3.04321
2.14489
1.27567
0.423374
26.1829
21.235
17.2809
14.3285
12.056
10.2239
8.68371
7.34458
6.14895
5.05858
4.04655
3.09265
2.1808
1.29746
0.430677
32.6475
22.2971
17.2178
14.0955
11.8576
10.0886
8.60148
7.30013
6.12934
5.05414
4.05034
3.09981
2.18801
1.30259
0.432515
-0.453862
-1.3666
-2.29456
-3.2486
-4.24071
-5.28475
-6.39752
-7.60051
-8.92316
-10.4089
-12.1271
-14.1994
-16.8603
-20.5978
-26.3996
-0.450362
-1.3556
-2.27453
-3.21672
-4.19247
-5.21316
-6.2917
-7.44317
-8.68567
-10.041
-11.534
-13.1821
-14.9439
-16.4723
-15.9839
-0.443703
-1.33504
-2.23823
-3.16137
-4.1128
-5.10106
-6.13477
-7.22206
-8.3692
-9.57711
-10.8324
-12.085
-13.1883
-13.746
-12.7598
-0.434292
-1.30618
-2.18798
-3.08623
-4.00731
-4.95707
-5.9402
-6.95885
-8.00997
-9.07966
-10.1321
-11.0904
-11.811
-12.0907
-11.9036
-0.422568
-1.27039
-2.1262
-2.99509
-3.88169
-4.7896
-5.72054
-6.67264
-7.63737
-8.59358
-9.49648
-10.2601
-10.7392
-10.7585
-10.5446
-0.408963
-1.22899
-2.05524
-2.89153
-3.74105
-4.60583
-5.48579
-6.37725
-7.27032
-8.14402
-8.95671
-9.62691
-9.98566
-9.58758
-6.77674
-0.393878
-1.18322
-1.97722
-2.77865
-3.58963
-4.41121
-5.24264
-6.08033
-6.91643
-7.73644
-8.51501
-9.20971
-9.75698
-10.0916
-10.4686
-0.377675
-1.13416
-1.89398
-2.65903
-3.43069
-4.2095
-4.99474
-5.78409
-6.57345
-7.35737
-8.13075
-8.89456
-9.67536
-10.5655
-11.7647
-0.360664
-1.08275
-1.80703
-2.53473
-3.26666
-4.00309
-4.74364
-5.48742
-6.23392
-6.98541
-7.75247
-8.56722
-9.5173
-10.8241
-13.0363
-0.34311
-1.02976
-1.71765
-2.4074
-3.09939
-3.79365
-4.49
-5.18848
-5.8906
-6.60239
-7.34058
-8.14551
-9.11101
-10.4536
-12.7305
-0.325239
-0.975864
-1.62689
-2.27844
-2.93044
-3.58262
-4.23467
-4.88668
-5.54025
-6.20083
-6.88193
-7.61195
-8.44248
-9.43372
-10.4678
-0.307247
-0.921641
-1.5357
-2.14908
-2.76126
-3.37156
-3.97919
-4.58355
-5.18477
-5.78478
-6.389
-7.0083
-7.66201
-8.3838
-9.2803
-0.289307
-0.867606
-1.44492
-2.02047
-2.59331
-3.16225
-3.72585
-4.28242
-4.82991
-5.36564
-5.88534
-6.38052
-6.83402
-7.21232
-7.42345
-0.271573
-0.814213
-1.3553
-1.89368
-2.42798
-2.95654
-3.47729
-3.98746
-4.48304
-4.95747
-5.39853
-5.78152
-6.05809
-6.15679
-6.16674
-0.254177
-0.761865
-1.26752
-1.76965
-2.26655
-2.75618
-3.23598
-3.70251
-4.15074
-4.57237
-4.95189
-5.25632
-5.40556
-5.16279
-3.62511
-0.237233
-0.710902
-1.18214
-1.6492
-2.11011
-2.56257
-3.0038
-3.43018
-3.83683
-4.21645
-4.55729
-4.83883
-5.02519
-5.06802
-5.0505
-0.220835
-0.661605
-1.09964
-1.53298
-1.95948
-2.37672
-2.78185
-3.1715
-3.54162
-3.88742
-4.2038
-4.48741
-4.74448
-5.01519
-5.43041
-0.205057
-0.614193
-1.02036
-1.42147
-1.81525
-2.19923
-2.57061
-2.92634
-3.26326
-3.57879
-3.87305
-4.15442
-4.45433
-4.86209
-5.59306
-0.189954
-0.56883
-0.944578
-1.31501
-1.67781
-2.03046
-2.37021
-2.69422
-2.99972
-3.28494
-3.55125
-3.8086
-4.08936
-4.48463
-5.25976
-0.175566
-0.525631
-0.872472
-1.21385
-1.54741
-1.87061
-2.18075
-2.47493
-2.75027
-3.00425
-3.23569
-3.44657
-3.64497
-3.8435
-3.99828
-0.161916
-0.484666
-0.80415
-1.11811
-1.42419
-1.71984
-2.00236
-2.26874
-2.51566
-2.73924
-2.93446
-3.09329
-3.20059
-3.2329
-3.23905
-0.149016
-0.445967
-0.739659
-1.02785
-1.3082
-1.57821
-1.83518
-2.07608
-2.29728
-2.49399
-2.65857
-2.77588
-2.8084
-2.64062
-1.82436
-0.136866
-0.409533
-0.678988
-0.943035
-1.19939
-1.44565
-1.6792
-1.89713
-2.09596
-2.2711
-2.41557
-2.51746
-2.55541
-2.4988
-2.37676
-0.125456
-0.37533
-0.622077
-0.863568
-1.09761
-1.32193
-1.5341
-1.73149
-1.91116
-2.06956
-2.20225
-2.30356
-2.36823
-2.40258
-2.47129
-0.114769
-0.343303
-0.568821
-0.789283
-1.00261
-1.20667
-1.39929
-1.57821
-1.74117
-1.88597
-2.01081
-2.1152
-2.20226
-2.28268
-2.37174
-0.104779
-0.313376
-0.519086
-0.719967
-0.914062
-1.0994
-1.27403
-1.43607
-1.58387
-1.71633
-1.83367
-1.93902
-2.04104
-2.15696
-2.3073
-0.0954588
-0.285461
-0.472714
-0.65538
-0.831618
-0.999603
-1.15757
-1.30389
-1.43729
-1.55726
-1.66499
-1.76526
-1.87035
-2.00753
-2.23105
-0.086777
-0.259462
-0.429541
-0.595275
-0.754931
-0.9068
-1.04924
-1.18074
-1.3001
-1.40678
-1.50159
-1.5883
-1.67752
-1.79834
-2.04367
-0.0787011
-0.235282
-0.389399
-0.539411
-0.683679
-0.820586
-0.948552
-1.06608
-1.17181
-1.26464
-1.34392
-1.40971
-1.46291
-1.50286
-1.50003
-0.0711985
-0.212822
-0.352124
-0.487555
-0.61757
-0.740621
-0.855172
-0.959676
-1.05254
-1.13199
-1.19573
-1.24
-1.25765
-1.23727
-1.19191
-0.0642363
-0.191983
-0.317551
-0.439484
-0.556324
-0.6666
-0.76882
-0.86142
-0.942661
-1.01035
-1.06116
-1.08888
-1.07894
-0.989167
-0.661781
-0.0577813
-0.172666
-0.285517
-0.394972
-0.499666
-0.598214
-0.689199
-0.771117
-0.842263
-0.900494
-0.942734
-0.964004
-0.955792
-0.906192
-0.823533
-0.0518002
-0.154772
-0.255855
-0.353789
-0.447304
-0.53512
-0.615926
-0.688354
-0.750902
-0.801823
-0.838967
-0.8597
-0.861495
-0.846293
-0.838552
-0.0462588
-0.138197
-0.228396
-0.315695
-0.398929
-0.47693
-0.548521
-0.61251
-0.667677
-0.712789
-0.746689
-0.768639
-0.77911
-0.781327
-0.779732
-0.0411229
-0.122839
-0.202965
-0.280443
-0.354214
-0.423227
-0.486442
-0.542847
-0.591497
-0.631606
-0.662796
-0.685635
-0.702559
-0.719122
-0.743573
-0.0363578
-0.108593
-0.179388
-0.247784
-0.312829
-0.373584
-0.429135
-0.478624
-0.521305
-0.556678
-0.584782
-0.606822
-0.626355
-0.651548
-0.697942
-0.031929
-0.0953556
-0.157489
-0.21747
-0.274448
-0.327586
-0.376078
-0.419177
-0.456243
-0.486856
-0.511051
-0.529826
-0.546309
-0.569354
-0.628072
-0.0278023
-0.0830238
-0.137097
-0.189259
-0.238754
-0.284842
-0.326804
-0.363963
-0.39571
-0.421544
-0.44115
-0.454492
-0.461788
-0.462477
-0.44547
-0.0239441
-0.0714967
-0.118043
-0.162914
-0.205448
-0.244989
-0.280898
-0.312548
-0.339327
-0.360605
-0.375656
-0.383419
-0.381923
-0.367966
-0.345043
-0.0203213
-0.0606749
-0.100162
-0.138207
-0.174237
-0.207683
-0.237978
-0.264552
-0.286803
-0.304033
-0.315275
-0.318828
-0.310771
-0.279741
-0.183183
-0.0169009
-0.0504603
-0.0832922
-0.114913
-0.144838
-0.172586
-0.197669
-0.219588
-0.237799
-0.251654
-0.260281
-0.262343
-0.255621
-0.23707
-0.208721
-0.0136507
-0.0407556
-0.0672715
-0.0928057
-0.116965
-0.139357
-0.159581
-0.177226
-0.191848
-0.202937
-0.209884
-0.211994
-0.208727
-0.201244
-0.19879
-0.0105382
-0.0314643
-0.0519394
-0.0716627
-0.0903329
-0.107648
-0.123303
-0.136987
-0.148375
-0.157121
-0.162881
-0.16541
-0.164797
-0.16196
-0.157575
-0.00753123
-0.0224894
-0.0371347
-0.0512583
-0.0646512
-0.0771047
-0.0884106
-0.098362
-0.106755
-0.113398
-0.118151
-0.121031
-0.122439
-0.123781
-0.129649
-0.00459762
-0.0137346
-0.0226966
-0.031367
-0.0396291
-0.0473678
-0.0544711
-0.0608344
-0.0663666
-0.0710038
-0.0747409
-0.0776937
-0.0801502
-0.0824839
-0.08334
-0.00170516
-0.00510317
-0.0084641
-0.0117631
-0.0149756
-0.0180787
-0.0210544
-0.0238948
-0.0266107
-0.0292447
-0.0318906
-0.0347152
-0.0379626
-0.0422296
-0.0513377
0.00117833
0.00350131
0.00572357
0.00777839
0.0095992
0.0111182
0.0122634
0.012952
0.0130817
0.0125166
0.011075
0.00854917
0.00492345
0.00137619
0.00508096
0.004085
0.0121753
0.0200269
0.0274817
0.0343829
0.0405741
0.0458967
0.0501849
0.0532548
0.0548859
0.0547906
0.0525758
0.0477522
0.0399431
0.030209
0.00704711
0.0210154
0.0346064
0.0475706
0.0596612
0.0706348
0.0802505
0.0882662
0.0944301
0.0984582
0.0999811
0.0984187
0.092658
0.0798506
0.0496186
0.010097
0.0301184
0.0496229
0.0682687
0.0857189
0.101643
0.115721
0.12764
0.137096
0.14378
0.147323
0.147188
0.142468
0.131869
0.116956
0.0132674
0.0395823
0.0652388
0.0898016
0.112842
0.133942
0.152698
0.168733
0.181701
0.191296
0.197233
0.19916
0.196378
0.186903
0.163347
0.0165912
0.0495059
0.0816183
0.112398
0.141321
0.167877
0.191578
0.21197
0.228666
0.241373
0.249948
0.254425
0.254963
0.251741
0.247232
0.0201021
0.0599897
0.0989289
0.136291
0.171454
0.203808
0.232769
0.257794
0.278421
0.294343
0.305536
0.312458
0.316192
0.317512
0.308393
0.023834
0.0711361
0.117341
0.16172
0.203548
0.242112
0.276713
0.306693
0.331469
0.350627
0.364124
0.372742
0.379138
0.390582
0.428584
0.0278215
0.0830488
0.137029
0.188931
0.237925
0.283184
0.323888
0.359231
0.388448
0.410877
0.426139
0.434612
0.43863
0.445266
0.470943
0.0320994
0.0958325
0.158168
0.218173
0.274911
0.32744
0.37481
0.416054
0.450175
0.476142
0.492913
0.499627
0.496362
0.486792
0.485752
0.0367024
0.109592
0.180935
0.249697
0.314836
0.3753
0.430014
0.477856
0.517604
0.547836
0.566721
0.571627
0.558534
0.522462
0.470675
0.0416652
0.124432
0.205505
0.28375
0.358027
0.427179
0.490022
0.545314
0.591682
0.627458
0.650292
0.656187
0.636731
0.569114
0.36953
0.0470218
0.140453
0.232048
0.320575
0.404797
0.483464
0.555305
0.619008
0.673162
0.716121
0.745687
0.758419
0.748444
0.707482
0.643071
0.0528054
0.157757
0.260732
0.360405
0.455445
0.544516
0.626275
0.699376
0.762465
0.814142
0.852838
0.876492
0.881759
0.86222
0.79999
0.0590486
0.176442
0.29172
0.403468
0.510261
0.610674
0.703293
0.786741
0.859746
0.921236
0.97051
1.00741
1.0324
1.04671
1.05976
0.0657829
0.196601
0.325171
0.449987
0.569529
0.682276
0.786716
0.881406
0.965077
1.03688
1.09685
1.1467
1.19055
1.23219
1.24702
0.0730388
0.218327
0.36124
0.500183
0.633539
0.759674
0.876949
0.983769
1.07871
1.1608
1.2303
1.29026
1.35034
1.43643
1.62311
0.0808453
0.241707
0.400078
0.554274
0.702584
0.843253
0.974481
1.09443
1.20131
1.29355
1.37045
1.43383
1.49219
1.57096
1.73227
0.0892289
0.266824
0.441823
0.612467
0.776955
0.933416
1.07988
1.21423
1.33413
1.43701
1.52009
1.58097
1.62
1.64833
1.70853
0.0982132
0.293748
0.4866
0.674948
0.856918
1.03055
1.19373
1.3441
1.47884
1.5943
1.68523
1.7434
1.75537
1.7037
1.61245
0.107818
0.32254
0.534512
0.741869
0.942689
1.13496
1.3165
1.48486
1.63698
1.76868
1.87321
1.93799
1.93506
1.7867
1.20538
0.118057
0.353243
0.585634
0.813336
1.03441
1.24683
1.44847
1.63693
1.80937
1.96198
2.08886
2.1797
2.21585
2.1705
2.06885
0.128942
0.385889
0.640013
0.889412
1.13214
1.36622
1.5896
1.80015
1.99557
2.17321
2.32963
2.45948
2.55336
2.59351
2.53283
0.140478
0.420493
0.697674
0.970116
1.23589
1.49305
1.73967
1.9739
2.19414
2.39923
2.58891
2.76432
2.9283
3.08667
3.27023
0.152667
0.457061
0.758623
1.05545
1.34561
1.62719
1.89834
2.1574
2.40326
2.63599
2.85817
3.07716
3.30724
3.5625
3.77854
0.165509
0.49559
0.822852
1.14539
1.46128
1.76858
2.0654
2.35007
2.6215
2.88008
3.1297
3.38236
3.6688
4.06571
4.78633
0.178998
0.536067
0.890348
1.23994
1.5829
1.91723
2.24089
2.55193
2.84867
3.13042
3.39915
3.66416
3.95372
4.34426
5.02366
0.193126
0.578471
0.96108
1.33907
1.71048
2.07324
2.42512
2.76369
3.08624
3.38977
3.67121
3.92894
4.16859
4.42231
4.79148
0.207879
0.622761
1.03499
1.44274
1.84404
2.23678
2.61856
2.98653
3.33698
3.66442
3.95971
4.20626
4.37372
4.42026
4.41814
0.223233
0.668871
1.11199
1.55084
1.98349
2.40786
2.82152
3.22148
3.60364
3.96134
4.28203
4.53847
4.66282
4.45201
3.12722
0.239156
0.716705
1.19193
1.66318
2.12864
2.58631
3.03391
3.46871
3.88718
4.28387
4.64889
4.96233
5.18463
5.25735
5.25965
0.255601
0.766126
1.27458
1.77947
2.27912
2.77167
3.25508
3.72718
4.18574
4.62826
5.05144
5.44937
5.8102
6.1115
6.29099
0.272504
0.81695
1.35966
1.89933
2.43443
2.96326
3.48397
3.99493
4.49527
4.98593
5.47138
5.962
6.47696
7.0501
7.77663
0.289785
0.868942
1.4468
2.02227
2.59401
3.16035
3.71949
4.26989
4.81133
5.34701
5.88753
6.45752
7.10309
7.88197
8.71499
0.307338
0.921796
1.53551
2.14771
2.7572
3.36231
3.96092
4.55088
5.13117
5.70448
6.28297
6.90026
7.63637
8.67593
10.4832
0.325027
0.975118
1.62521
2.27492
2.9233
3.5686
4.20814
4.83838
5.45561
6.05806
6.65118
7.26014
7.95856
8.93637
10.6678
0.342673
1.02839
1.71508
2.40294
3.09139
3.77872
4.46161
5.13465
5.79002
6.41779
7.00804
7.5575
8.08631
8.67302
9.47236
0.360042
1.08093
1.80406
2.53041
3.26008
3.99171
4.72167
5.4429
6.14326
6.8032
7.39283
7.86874
8.17337
8.26151
8.36768
0.376836
1.13184
1.89069
2.65545
3.42725
4.20564
4.98751
5.76534
6.52422
7.23702
7.85611
8.29841
8.41023
7.83692
5.33811
0.392683
1.18001
1.97313
2.77545
3.58963
4.4169
5.25587
6.10057
6.93676
7.73544
8.44164
8.95702
9.12227
8.74891
7.98685
0.407144
1.22411
2.04905
2.88705
3.74274
4.61978
5.51994
6.44133
7.37489
8.29756
9.1591
9.85814
10.2077
9.93012
8.92442
0.41972
1.26259
2.11578
2.98621
3.8808
4.80632
5.76893
6.77323
7.82009
8.90156
9.98874
11.0013
11.7277
11.6162
9.28359
0.429889
1.29384
2.17042
3.06842
3.99717
4.96682
5.98859
7.07513
8.24072
9.50097
10.8695
12.3423
13.8288
14.8437
13.1154
0.437132
1.31624
2.21007
3.12911
4.08493
5.09085
6.16292
7.32163
8.59499
10.0245
11.6772
13.6732
16.2559
19.9754
26.1616
25.2795
19.1019
15.5539
13.141
11.2788
9.72503
8.36788
7.14808
6.0299
4.98931
4.00855
3.07349
2.17223
1.29425
0.429918
11.6716
13.7659
13.0794
11.8258
10.5067
9.23948
8.04786
6.93047
5.87908
4.88391
3.93514
3.02342
2.13988
1.27611
0.424076
7.2538
10.3601
10.9976
10.5553
9.6978
8.70082
7.67574
6.66653
5.68883
4.74597
3.83577
2.95359
2.09365
1.24976
0.415512
5.18802
8.66775
9.6648
9.57227
8.98509
8.18107
7.29207
6.38025
5.474
4.58504
3.71671
2.86813
2.03617
1.21663
0.404687
7.91077
8.6987
9.08789
8.93207
8.42233
7.71977
6.92373
6.08967
5.24681
4.40948
3.58373
2.77095
1.96996
1.17814
0.39206
8.94383
9.00581
8.88875
8.537
7.99287
7.32285
6.58132
5.80479
5.01543
4.22561
3.44151
2.66542
1.89728
1.13559
0.378053
10.2261
9.43651
8.85193
8.27489
7.65027
6.97508
6.26277
5.52845
4.78403
4.03752
3.29353
2.55423
1.82
1.09009
0.363032
10.8353
9.72416
8.80924
8.04525
7.34226
6.65264
5.95911
5.25876
4.55381
3.84742
3.14212
2.43936
1.73961
1.04255
0.347303
11.8411
9.87486
8.66115
7.77272
7.0245
6.33249
5.65982
4.99195
4.32431
3.65635
2.98875
2.32227
1.65727
0.993687
0.331109
11.523
9.50241
8.28666
7.40235
6.6673
5.99852
5.35687
4.72469
4.09478
3.46481
2.83446
2.20402
1.57385
0.944074
0.314647
9.47715
8.57055
7.68154
6.92793
6.26371
5.64538
5.04706
4.4556
3.86508
3.27336
2.68007
2.08548
1.49006
0.894173
0.298077
8.41248
7.62609
6.98202
6.39107
5.82796
5.27804
4.73224
4.18563
3.63601
3.08285
2.52644
1.96742
1.40652
0.844372
0.281531
6.76687
6.58251
6.24531
5.83461
5.3828
4.90759
4.41777
3.91755
3.40924
2.89444
2.37449
1.85058
1.32377
0.795012
0.265126
5.64242
5.64485
5.55944
5.30649
4.95367
4.5471
4.11033
3.65492
3.18683
2.70949
2.2252
1.73567
1.24233
0.746397
0.248963
3.34775
4.76807
4.98977
4.84757
4.5617
4.20741
3.81569
3.40097
2.97073
2.52927
2.07944
1.62333
1.16263
0.698795