/*--------------------------------*- C++ -*----------------------------------*\
| =========                 |                                                 |
| \\      /  F ield         | OpenFOAM: The Open Source CFD Toolbox           |
|  \\    /   O peration     | Version:  5.x                                   |
|   \\  /    A nd           | Web:      www.OpenFOAM.org                      |
|    \\/     M anipulation  |                                                 |
\*---------------------------------------------------------------------------*/
FoamFile
{
    version     2.0;
    format      ascii;
    class       volScalarField;
    location    "0.5";
    object      gradTx;
}
// * * * * * * * * * * * * * * * * * * * * * * * * * * * * * * * * * * * * * //

dimensions      [0 -1 0 1 0 0 0];

internalField   nonuniform List<scalar> 
6300
(
-64.9882
-64.8987
-64.7193
-64.4493
-64.0877
-63.6333
-63.085
-62.4419
-61.7035
-60.8702
-59.9433
-58.925
-57.8192
-56.6308
-55.3657
-65.0753
-64.9862
-64.8076
-64.5387
-64.1783
-63.725
-63.1777
-62.5351
-61.7965
-60.962
-60.0327
-59.0109
-57.9003
-56.706
-55.4344
-65.2492
-65.161
-64.984
-64.7172
-64.3593
-63.9087
-63.3635
-62.7221
-61.9834
-61.1467
-60.2129
-59.1839
-58.0635
-56.8573
-55.5721
-65.509
-65.4221
-65.2477
-64.9845
-64.6309
-64.1846
-63.6433
-63.0045
-62.2661
-61.4268
-60.4864
-59.4465
-58.311
-57.0858
-55.7794
-65.8533
-65.7684
-65.5978
-65.34
-64.9928
-64.5534
-64.0184
-63.3843
-62.6477
-61.8059
-60.8575
-59.8031
-58.6464
-57.3943
-56.057
-66.28
-66.1979
-66.0327
-65.7825
-65.4447
-65.0154
-64.4903
-63.8644
-63.1325
-62.2898
-61.3327
-60.2604
-59.0757
-57.7865
-56.406
-66.7865
-66.7081
-66.5501
-66.3104
-65.9855
-65.5709
-65.0608
-64.4484
-63.726
-62.8859
-61.9212
-60.8281
-59.6077
-58.2686
-56.8279
-67.3688
-67.2952
-67.1467
-66.9209
-66.6136
-66.2196
-65.7314
-65.1401
-64.4351
-63.6044
-62.6362
-61.5213
-60.2567
-58.8504
-57.3252
-68.0222
-67.9547
-67.8182
-67.6102
-67.3262
-66.9598
-66.5027
-65.9434
-65.2676
-64.4582
-63.4958
-62.3622
-61.0456
-59.5495
-57.9028
-68.7405
-68.6804
-68.5588
-68.3729
-68.1184
-67.7885
-67.3736
-66.8606
-66.2315
-65.4626
-64.5245
-63.384
-62.0118
-60.3973
-58.5723
-69.5162
-69.4648
-69.3608
-69.2018
-68.9834
-68.6994
-68.3401
-67.8914
-67.3326
-66.6338
-65.7531
-64.6353
-63.218
-61.4538
-59.3606
-70.3406
-70.2991
-70.2153
-70.0871
-69.9115
-69.683
-69.3934
-69.0297
-68.5711
-67.9843
-67.2161
-66.1837
-64.769
-62.8374
-60.3319
-71.2035
-71.1729
-71.1111
-71.0173
-70.8895
-70.7248
-70.518
-70.26
-69.935
-69.5136
-68.9407
-68.112
-66.8347
-64.793
-61.6462
-72.0942
-72.0749
-72.0362
-71.9784
-71.9017
-71.8059
-71.6907
-71.5544
-71.3922
-71.1913
-70.9185
-70.4862
-69.6622
-67.8514
-63.7778
-73.0013
-72.9931
-72.9774
-72.9556
-72.9298
-72.9034
-72.8815
-72.8716
-72.8849
-72.9379
-73.0529
-73.2493
-73.4736
-73.1694
-68.689
-54.1469
-52.99
-51.7929
-50.5594
-49.293
-47.9972
-46.6752
-45.3302
-43.9658
-42.5857
-41.1941
-39.7958
-38.3957
-36.9992
-35.6117
-34.2385
-32.8849
-31.5558
-30.2557
-28.989
-27.7593
-26.5703
-25.4247
-24.3254
-23.2743
-22.2733
-21.3235
-20.426
-19.5813
-18.7896
-18.0508
-17.3648
-16.7311
-16.149
-15.6179
-15.137
-14.7056
-14.3229
-13.9881
-13.7007
-13.46
-13.2655
-13.1168
-13.0136
-12.9557
-12.9431
-12.9759
-13.0545
-13.1791
-13.3503
-13.5686
-13.8348
-14.1494
-14.5132
-14.9267
-15.3906
-15.9055
-16.4716
-17.0895
-17.7594
-18.4813
-19.2553
-20.0813
-20.959
-21.8879
-22.8673
-23.8963
-24.9738
-26.0983
-27.268
-28.4808
-29.7343
-31.0258
-32.3524
-33.7107
-35.0969
-36.5071
-37.9368
-39.3815
-40.8363
-42.2962
-43.7561
-45.2108
-46.6548
-48.0827
-49.4887
-50.8671
-52.2117
-53.5166
-54.7758
-54.2093
-53.0469
-51.8444
-50.6059
-49.3348
-48.0345
-46.7078
-45.358
-43.9882
-42.6022
-41.2041
-39.7986
-38.391
-36.9868
-35.5916
-34.2111
-32.8505
-31.5148
-30.2088
-28.9365
-27.702
-26.5087
-25.3595
-24.2571
-23.2036
-22.2007
-21.2496
-20.3514
-19.5063
-18.7147
-17.9763
-17.291
-16.6581
-16.077
-15.547
-15.0673
-14.6369
-14.2552
-13.9214
-13.6348
-13.3948
-13.2009
-13.0527
-12.9497
-12.8919
-12.8791
-12.9116
-12.9896
-13.1134
-13.2838
-13.5012
-13.7664
-14.0801
-14.4429
-14.8556
-15.3188
-15.8329
-16.3986
-17.0161
-17.6858
-18.4077
-19.1819
-20.0083
-20.8866
-21.8164
-22.7971
-23.8279
-24.9074
-26.0344
-27.207
-28.4232
-29.6805
-30.9763
-32.3077
-33.6711
-35.0631
-36.4794
-37.9157
-39.3673
-40.8292
-42.2963
-43.7636
-45.2259
-46.6777
-48.1136
-49.528
-50.9149
-52.2681
-53.5814
-54.8485
-54.3342
-53.1603
-51.947
-50.6985
-49.4182
-48.109
-46.7736
-45.4143
-44.034
-42.6361
-41.2247
-39.8047
-38.3817
-36.9619
-35.5512
-34.1556
-32.7809
-31.4321
-30.114
-28.8309
-27.5866
-26.3846
-25.2281
-24.1196
-23.0612
-22.0547
-21.1012
-20.2014
-19.3558
-18.5643
-17.8269
-17.143
-16.5119
-15.933
-15.4052
-14.9277
-14.4996
-14.12
-13.7881
-13.5033
-13.2648
-13.0721
-12.9248
-12.8223
-12.7646
-12.7515
-12.7831
-12.8599
-12.9823
-13.1509
-13.3664
-13.6297
-13.9414
-14.3024
-14.7133
-15.1749
-15.6877
-16.2523
-16.8691
-17.5383
-18.2602
-19.0348
-19.8619
-20.7414
-21.6731
-22.6563
-23.6903
-24.774
-25.906
-27.0845
-28.3074
-29.5723
-30.8767
-32.2174
-33.5914
-34.9948
-36.4235
-37.8731
-39.3385
-40.8146
-42.2963
-43.7784
-45.2557
-46.7231
-48.1752
-49.6063
-51.0104
-52.3811
-53.7116
-54.9952
-54.5212
-53.3294
-52.0995
-50.836
-49.5424
-48.221
-46.8732
-45.5007
-44.1052
-42.6895
-41.2578
-39.8153
-38.3685
-36.9242
-35.4895
-34.071
-32.6747
-31.3061
-29.9699
-28.6703
-27.4113
-26.1963
-25.0287
-23.9111
-22.8455
-21.8337
-20.8766
-19.9749
-19.1286
-18.3377
-17.6018
-16.9203
-16.2922
-15.7166
-15.1924
-14.7185
-14.2938
-13.9175
-13.5886
-13.3064
-13.0702
-12.8795
-12.7336
-12.632
-12.5744
-12.5608
-12.5912
-12.6661
-12.786
-12.9518
-13.1644
-13.4246
-13.7333
-14.0913
-14.4995
-14.9586
-15.4693
-16.0323
-16.648
-17.3166
-18.0383
-18.8133
-19.6414
-20.5226
-21.4568
-22.4436
-23.4824
-24.5723
-25.7118
-26.8991
-28.1321
-29.4084
-30.7254
-32.0803
-33.47
-34.8907
-36.3383
-37.808
-39.2945
-40.7922
-42.2958
-43.7999
-45.2997
-46.7902
-48.2664
-49.7229
-51.1533
-52.5509
-53.9082
-55.2174
-54.7695
-53.5522
-52.2994
-51.0163
-49.7062
-48.3702
-47.0083
-45.62
-44.2053
-42.7662
-41.3066
-39.8326
-38.352
-36.8733
-35.4051
-33.955
-32.5296
-31.1344
-29.7739
-28.4524
-27.1735
-25.9412
-24.7586
-23.6287
-22.5538
-21.5352
-20.5737
-19.6697
-18.823
-18.0333
-17.2998
-16.6219
-15.9983
-15.4277
-14.9087
-14.4398
-14.0199
-13.648
-13.3231
-13.0446
-12.8117
-12.6238
-12.48
-12.3797
-12.3225
-12.308
-12.3366
-12.4087
-12.5251
-12.6869
-12.8952
-13.151
-13.4555
-13.8094
-14.2137
-14.6694
-15.1772
-15.7379
-16.352
-17.0197
-17.7412
-18.5166
-19.3458
-20.2289
-21.1661
-22.1573
-23.2023
-24.3003
-25.4499
-26.6491
-27.8956
-29.1869
-30.5206
-31.8941
-33.3045
-34.7485
-36.2218
-37.7192
-39.2345
-40.7617
-42.2945
-43.8278
-45.3568
-46.8775
-48.3856
-49.8762
-51.3429
-52.778
-54.1729
-55.5184
-55.0774
-53.8251
-52.542
-51.2349
-49.9065
-48.5564
-47.1813
-45.777
-44.3407
-42.8725
-41.3763
-39.8598
-38.3332
-36.808
-35.2953
-33.8043
-32.342
-30.9136
-29.5231
-28.174
-26.8701
-25.6154
-24.4138
-23.2686
-22.1822
-21.1557
-20.1895
-19.2834
-18.4368
-17.6491
-16.9194
-16.2467
-15.6295
-15.0659
-14.554
-14.092
-13.6784
-13.3121
-12.9923
-12.7185
-12.4899
-12.3058
-12.1651
-12.0669
-12.0102
-11.9948
-12.0207
-12.0888
-12.2003
-12.3565
-12.5589
-12.809
-13.1078
-13.4563
-13.8555
-14.3065
-14.8104
-15.368
-15.9801
-16.6468
-17.3681
-18.1438
-18.974
-19.8588
-20.7989
-21.795
-22.8473
-23.9554
-25.1177
-26.3321
-27.5956
-28.9056
-30.2595
-31.6555
-33.0916
-34.5649
-36.0713
-37.6049
-39.1581
-40.7231
-42.2928
-43.8616
-45.4256
-46.9825
-48.5297
-50.0633
-51.5771
-53.0621
-54.5078
-55.9024
-55.4417
-54.1411
-52.8184
-51.483
-50.1376
-48.7782
-47.3958
-45.9799
-44.5221
-43.0194
-41.4758
-39.9019
-38.3129
-36.7255
-35.155
-33.6129
-32.1065
-30.6394
-29.2136
-27.8316
-26.497
-25.2145
-23.9892
-22.8253
-21.7256
-20.6908
-19.7203
-18.8128
-17.9673
-17.1827
-16.4584
-15.7931
-15.1848
-14.631
-14.129
-13.676
-13.2703
-12.9107
-12.5968
-12.3286
-12.1055
-11.9267
-11.7906
-11.6955
-11.64
-11.6233
-11.6456
-11.708
-11.8123
-11.9608
-12.1556
-12.3982
-12.6899
-13.0315
-13.4241
-13.869
-14.3676
-14.9213
-15.5309
-16.1967
-16.918
-17.6941
-18.5248
-19.4105
-20.3526
-21.3531
-22.4134
-23.5336
-24.7121
-25.9456
-27.2301
-28.562
-29.939
-31.3603
-32.8258
-34.3345
-35.8825
-37.4627
-39.065
-40.6782
-42.2926
-43.9022
-45.5046
-47.1011
-48.6928
-50.2785
-51.8518
-53.4021
-54.9151
-56.3753
-55.8565
-54.4878
-53.1122
-51.7446
-50.388
-49.0325
-47.6582
-46.2428
-44.768
-43.2253
-41.6192
-39.9662
-38.2908
-36.6193
-34.9746
-33.3713
-31.8155
-30.3066
-28.8423
-27.4223
-26.0502
-24.7326
-23.4774
-22.291
-21.1769
-20.1347
-19.1616
-18.2546
-17.4113
-16.6311
-15.9139
-15.2587
-14.6631
-14.1233
-13.6347
-13.1935
-12.7971
-12.4448
-12.1371
-11.8751
-11.6589
-11.4875
-11.3584
-11.2686
-11.2154
-11.1972
-11.2141
-11.2681
-11.3623
-11.5001
-11.6847
-11.9182
-12.2014
-12.5348
-12.919
-13.3555
-13.8468
-14.3953
-15.0025
-15.6681
-16.3905
-17.1675
-17.9979
-18.8824
-19.8238
-20.8265
-21.8945
-23.0293
-24.2286
-25.4869
-26.7975
-28.1546
-29.5557
-31.0025
-32.499
-34.0482
-35.6481
-37.2895
-38.9566
-40.6317
-42.2998
-43.9529
-45.5923
-47.2262
-48.8643
-50.5106
-52.1591
-53.7948
-55.3974
-56.9451
-56.3121
-54.843
-53.3934
-51.9894
-50.6364
-49.313
-47.9795
-46.5912
-45.1115
-43.5225
-41.8304
-40.0635
-38.2638
-36.4756
-34.7352
-33.0625
-31.4581
-29.9109
-28.4084
-26.9454
-25.5262
-24.1624
-22.8679
-21.6542
-20.5261
-19.4804
-18.5095
-17.6059
-16.766
-15.9904
-15.2814
-14.64
-14.0627
-13.5431
-13.0736
-12.6478
-12.2619
-11.916
-11.6131
-11.3569
-11.1493
-10.9888
-10.8711
-10.7905
-10.7417
-10.7218
-10.7307
-10.7719
-10.8507
-10.9733
-11.1448
-11.3678
-11.6423
-11.9665
-12.34
-12.7647
-13.2452
-13.7864
-14.3915
-15.0593
-15.7857
-16.5654
-17.3947
-18.2739
-19.2082
-20.2074
-21.281
-22.4336
-23.6616
-24.9546
-26.2993
-27.6851
-29.1081
-30.5743
-32.0972
-33.6897
-35.355
-37.0798
-38.8373
-40.5959
-42.3288
-44.0235
-45.6876
-47.3451
-49.0237
-50.739
-52.484
-54.234
-55.9575
-57.6232
-56.7934
-55.1689
-53.6077
-52.1601
-50.8415
-49.6081
-48.3798
-47.071
-45.6125
-43.9686
-42.1497
-40.2087
-38.2208
-36.2638
-34.3995
-32.6563
-31.0195
-29.4519
-27.9191
-26.4068
-24.924
-23.4937
-22.1435
-20.8955
-19.758
-18.7201
-17.7621
-16.8671
-16.0296
-15.2551
-14.5534
-13.9303
-13.3806
-12.8923
-12.4512
-12.046
-11.6706
-11.3268
-11.0233
-10.7701
-10.5731
-10.4299
-10.3318
-10.2678
-10.228
-10.2062
-10.2024
-10.2228
-10.2775
-10.3775
-10.532
-10.745
-11.0127
-11.3287
-11.6886
-12.095
-12.5574
-13.0872
-13.6915
-14.3676
-15.1057
-15.8935
-16.7214
-17.5873
-18.501
-19.4828
-20.5552
-21.7308
-23.0026
-24.3491
-25.7436
-27.1633
-28.5995
-30.0659
-31.5961
-33.2275
-34.9772
-36.8237
-38.7172
-40.5975
-42.4129
-44.1384
-45.7925
-47.4332
-49.1297
-50.9239
-52.8006
-54.7105
-56.5996
-58.4254
-57.2781
-55.4027
-53.6573
-52.144
-50.9237
-49.8953
-48.896
-47.7665
-46.3809
-44.6672
-42.6453
-40.4223
-38.1341
-35.9197
-33.8905
-32.0983
-30.4826
-28.9442
-27.4016
-25.8272
-24.2476
-22.7112
-21.2734
-19.9794
-18.848
-17.8463
-16.9252
-16.0471
-15.2039
-14.4163
-13.7138
-13.1162
-12.6116
-12.1747
-11.7788
-11.4027
-11.0351
-10.6812
-10.3624
-10.1035
-9.92102
-9.80753
-9.74472
-9.71165
-9.68966
-9.66595
-9.64045
-9.62578
-9.64029
-9.70448
-9.83654
-10.0445
-10.3152
-10.6289
-10.9715
-11.3462
-11.7739
-12.2821
-12.8897
-13.5882
-14.3557
-15.1654
-15.995
-16.8335
-17.6971
-18.6293
-19.6825
-20.8912
-22.2374
-23.6763
-25.153
-26.6194
-28.0488
-29.4668
-30.9507
-32.5959
-34.461
-36.5006
-38.6168
-40.6932
-42.6269
-44.3563
-45.9167
-47.4406
-49.0946
-50.9894
-53.0684
-55.2158
-57.3313
-59.3708
-57.7284
-55.448
-53.3715
-51.7052
-50.7283
-50.1398
-49.599
-48.8307
-47.6218
-45.8101
-43.4309
-40.7307
-37.942
-35.31
-33.0417
-31.2872
-29.836
-28.4442
-26.9315
-25.2569
-23.5106
-21.7884
-20.198
-18.831
-17.7528
-16.8582
-16.028
-15.1786
-14.2999
-13.4566
-12.7248
-12.1695
-11.7469
-11.3994
-11.0793
-10.7488
-10.3812
-9.98644
-9.61645
-9.32862
-9.17089
-9.11358
-9.11622
-9.14097
-9.15522
-9.12973
-9.06434
-8.98816
-8.93293
-8.93517
-9.0331
-9.25511
-9.55728
-9.88902
-10.2096
-10.5226
-10.8761
-11.3354
-11.9585
-12.7112
-13.5463
-14.4105
-15.2575
-16.0452
-16.7964
-17.6033
-18.5877
-19.8555
-21.3405
-22.9507
-24.5789
-26.1304
-27.5164
-28.774
-30.0748
-31.6489
-33.6947
-36.0682
-38.5748
-40.995
-43.1355
-44.8178
-46.0936
-47.2605
-48.7124
-50.7891
-53.2369
-55.7656
-58.1713
-60.4648
-58.0396
-55.198
-52.4938
-50.2727
-49.9734
-50.3155
-50.6299
-50.5294
-49.7312
-47.7709
-44.6794
-41.1675
-37.5256
-34.1775
-31.4544
-30.0408
-29.1053
-28.1199
-26.6963
-24.7915
-22.7408
-20.6775
-18.8028
-17.2681
-16.395
-15.7787
-15.1604
-14.3537
-13.3464
-12.338
-11.4831
-11.0334
-10.7755
-10.5864
-10.396
-10.1499
-9.76791
-9.25743
-8.7536
-8.36767
-8.27744
-8.33463
-8.45724
-8.58677
-8.67941
-8.65234
-8.50512
-8.3217
-8.14414
-8.02933
-8.05229
-8.35156
-8.75808
-9.16658
-9.45988
-9.64221
-9.82729
-10.1544
-10.8419
-11.7172
-12.6967
-13.682
-14.6072
-15.3112
-15.8172
-16.3233
-17.0866
-18.5085
-20.2652
-22.201
-24.1172
-25.8817
-27.1703
-28.021
-28.8066
-30.0239
-32.4577
-35.4451
-38.6583
-41.7002
-44.3045
-45.8651
-46.4274
-46.67
-47.4299
-50.0536
-53.2877
-56.4915
-59.1716
-61.6018
-57.6806
-54.7484
-50.9196
-46.0719
-48.2942
-50.5307
-52.258
-53.2332
-53.5144
-51.3614
-46.5343
-41.7928
-36.6872
-32.1467
-27.9826
-28.1077
-28.4485
-28.4286
-27.1563
-24.5381
-21.9913
-19.2969
-16.9198
-14.7541
-14.6692
-14.704
-14.5659
-13.8194
-12.3961
-11.0001
-9.65921
-9.62255
-9.7064
-9.7768
-9.79428
-9.74835
-9.34109
-8.52028
-7.72233
-6.98222
-7.17301
-7.46281
-7.78966
-8.0871
-8.37741
-8.34937
-7.99945
-7.64815
-7.2663
-6.92638
-6.67483
-7.29488
-7.95737
-8.61144
-8.87141
-8.75926
-8.57544
-8.45566
-9.45646
-10.5749
-11.8402
-13.0419
-14.2774
-14.8644
-14.8397
-14.6749
-14.6387
-16.6815
-18.934
-21.4813
-23.8761
-26.3204
-27.4571
-27.3635
-26.9185
-26.6488
-30.425
-34.4983
-38.9895
-43.0365
-46.9774
-48.3504
-47.222
-45.3343
-43.4634
-48.4383
-53.3811
-57.9703
-60.5294
-62.0343
-53.3155
-55.5883
-50.8108
-31.6896
-46.5937
-51.4788
-54.9693
-56.9368
-60.8035
-58.8038
-48.267
-42.9437
-35.0365
-29.5754
-18.3361
-25.8655
-28.3134
-30.5429
-29.5568
-24.1841
-21.4567
-17.4612
-14.7342
-9.24543
-12.7728
-13.88
-14.8496
-14.2614
-11.4084
-9.58434
-5.95863
-8.03961
-8.65819
-9.04496
-9.28547
-9.86869
-9.51132
-7.7516
-6.60907
-4.25744
-5.92722
-6.53893
-7.16578
-7.59913
-8.5353
-8.51141
-7.49716
-7.01992
-6.32932
-5.69735
-4.04337
-6.17829
-7.17012
-8.62524
-8.82025
-7.98091
-7.23274
-5.14461
-7.90302
-9.22284
-11.0771
-12.3549
-14.8836
-15.3004
-14.0659
-12.8431
-9.19898
-14.5545
-17.1804
-20.9836
-23.566
-28.6446
-29.5176
-27.2144
-24.7795
-17.4492
-27.9661
-32.9512
-39.9615
-44.527
-53.3489
-54.4382
-49.1105
-43.9741
-29.6389
-46.8684
-53.9828
-62.371
-63.4038
-57.456
-56.0983
-57.4655
-58.7427
-59.9241
-61.0051
-61.9832
-62.8573
-63.6276
-64.2952
-64.8619
-65.3298
-65.701
-65.9775
-66.1608
-66.2522
-56.1791
-57.5539
-58.8371
-60.0227
-61.1063
-62.0854
-62.9592
-63.7283
-64.394
-64.9586
-65.4243
-65.7935
-66.0683
-66.2505
-66.3413
-56.3422
-57.7323
-59.0277
-60.2217
-61.3102
-62.2911
-63.164
-63.9302
-64.5919
-65.1519
-65.613
-65.978
-66.2495
-66.4293
-66.5189
-56.5901
-58.0041
-59.318
-60.5246
-61.62
-62.6027
-63.4735
-64.2347
-64.8896
-65.4419
-65.8956
-66.2539
-66.52
-66.6961
-66.7837
-56.9273
-58.3748
-59.7139
-60.9372
-62.0407
-63.0244
-63.8906
-64.6434
-65.2876
-65.8286
-66.2712
-66.6199
-66.8782
-67.0489
-67.1338
-57.3601
-58.8523
-60.2242
-61.4676
-62.5795
-63.5617
-64.4192
-65.1585
-65.7869
-66.3114
-66.7386
-67.0739
-67.3217
-67.4851
-67.5663
-57.898
-59.4484
-60.8613
-62.1276
-63.246
-64.2218
-65.0638
-65.7823
-66.3877
-66.8894
-67.2957
-67.6133
-67.8472
-68.0012
-68.0776
-58.5542
-60.1803
-61.6434
-62.9335
-64.0532
-65.0135
-65.8295
-66.5168
-67.0898
-67.5606
-67.9393
-68.234
-68.4503
-68.5923
-68.6628
-59.3483
-61.0735
-62.5965
-63.9078
-65.0177
-65.9475
-66.7216
-67.3632
-67.8914
-68.3213
-68.6647
-68.9306
-69.1252
-69.2527
-69.3159
-60.31
-62.1671
-63.7594
-65.0815
-66.1603
-67.0349
-67.7442
-68.3206
-68.7885
-69.1658
-69.4652
-69.6961
-69.8646
-69.975
-70.0296
-61.4836
-63.5236
-65.1907
-66.4964
-67.5046
-68.2856
-68.8977
-69.3841
-69.7737
-70.0853
-70.3317
-70.5213
-70.6598
-70.7504
-70.7953
-62.9374
-65.2509
-66.981
-68.2066
-69.0732
-69.7021
-70.1747
-70.5421
-70.8339
-71.0672
-71.2522
-71.3952
-71.5001
-71.569
-71.6032
-64.791
-67.5592
-69.2734
-70.2736
-70.8772
-71.2719
-71.5546
-71.7731
-71.9497
-72.0944
-72.2118
-72.3045
-72.3736
-72.4196
-72.4426
-67.3755
-70.9192
-72.2776
-72.7347
-72.8869
-72.9507
-72.9963
-73.0436
-73.0944
-73.1455
-73.1932
-73.2346
-73.2676
-73.2905
-73.3023
-72.3936
-76.4613
-76.18
-75.4984
-74.9818
-74.6442
-74.4339
-74.3079
-74.2357
-74.1968
-74.1777
-74.1703
-74.1688
-74.1698
-74.1708
-73.8375
-73.839
-73.8431
-73.8521
-73.8699
-73.9024
-73.9591
-74.0548
-74.2139
-74.4793
-74.9322
-75.7536
-77.4486
-81.8691
-97.6163
-74.5944
-74.6039
-74.6245
-74.6589
-74.712
-74.7916
-74.9093
-75.0839
-75.3461
-75.748
-76.3826
-77.4213
-79.1669
-81.9097
-83.5179
-75.3424
-75.3591
-75.394
-75.4504
-75.5336
-75.6518
-75.8175
-76.0498
-76.3788
-76.8528
-77.5498
-78.5952
-80.1904
-82.7358
-88.1707
-76.0767
-76.0994
-76.1464
-76.221
-76.3284
-76.4766
-76.6768
-76.9459
-77.3086
-77.8006
-78.4724
-79.3845
-80.5511
-81.5526
-79.031
-76.7928
-76.8205
-76.8774
-76.9665
-77.0926
-77.2625
-77.4856
-77.7746
-78.1462
-78.6213
-79.2254
-79.9943
-81.0239
-82.813
-88.4611
-77.4875
-77.5191
-77.5837
-77.6839
-77.8239
-78.0089
-78.246
-78.5433
-78.9094
-79.3499
-79.8612
-80.4201
-80.9665
-81.3904
-81.564
-78.1578
-78.1924
-78.2628
-78.3713
-78.5212
-78.7165
-78.9618
-79.2617
-79.6185
-80.0266
-80.4612
-80.8518
-80.9911
-80.1388
-74.8241
-78.8017
-78.8385
-78.9132
-79.0276
-79.1843
-79.3864
-79.6369
-79.9381
-80.2895
-80.6821
-81.0889
-81.4551
-81.7014
-81.9834
-85.0665
-79.4177
-79.456
-79.5336
-79.6519
-79.8133
-80.0199
-80.274
-80.5773
-80.9295
-81.3244
-81.7422
-82.1389
-82.3836
-81.88
-76.8516
-80.0046
-80.0438
-80.1232
-80.2439
-80.408
-80.6173
-80.8739
-81.18
-81.5378
-81.9475
-82.4071
-82.9258
-83.5821
-84.9159
-90.6456
-80.5617
-80.6014
-80.6816
-80.8034
-80.9685
-81.1787
-81.4363
-81.7445
-82.1078
-82.5327
-83.0281
-83.6143
-84.307
-84.8963
-82.9943
-81.0888
-81.1286
-81.2086
-81.3302
-81.4948
-81.7041
-81.9606
-82.268
-82.6329
-83.0656
-83.583
-84.2262
-85.1003
-86.6037
-91.0783
-81.5858
-81.6252
-81.7045
-81.8247
-81.9872
-82.1937
-82.4463
-82.7491
-83.1088
-83.5362
-84.0477
-84.6751
-85.4532
-86.2448
-85.2914
-82.0529
-82.0916
-82.1694
-82.2872
-82.4463
-82.6479
-82.8941
-83.1881
-83.5356
-83.9451
-84.4288
-85.0168
-85.7935
-87.0949
-90.7099
-82.4906
-82.5283
-82.604
-82.7186
-82.8729
-83.0681
-83.3054
-83.5872
-83.9172
-84.2991
-84.7344
-85.2248
-85.7659
-86.3354
-86.8499
-82.8996
-82.936
-83.0092
-83.1197
-83.2684
-83.4558
-83.6827
-83.9504
-84.2605
-84.6127
-84.9987
-85.3948
-85.7155
-85.6112
-83.3866
-83.2807
-83.3157
-83.3859
-83.4919
-83.6341
-83.8128
-84.0284
-84.2814
-84.5724
-84.8995
-85.253
-85.6147
-85.9569
-86.3565
-88.0754
-83.635
-83.6683
-83.7353
-83.8363
-83.9715
-84.1411
-84.345
-84.5835
-84.8571
-85.1646
-85.4987
-85.8454
-86.1553
-86.1828
-84.3395
-83.9634
-83.9951
-84.0587
-84.1543
-84.2822
-84.4423
-84.6344
-84.8586
-85.1161
-85.4077
-85.7327
-86.0991
-86.5467
-87.3054
-89.889
-84.2673
-84.2972
-84.3572
-84.4473
-84.5677
-84.7181
-84.8981
-85.1081
-85.3493
-85.6242
-85.9351
-86.2938
-86.7187
-87.1581
-86.7454
-84.5478
-84.5759
-84.6322
-84.7167
-84.8295
-84.9701
-85.138
-85.3332
-85.5572
-85.8122
-86.1013
-86.4402
-86.8774
-87.5998
-89.5445
-84.8061
-84.8324
-84.885
-84.964
-85.0691
-85.1999
-85.3556
-85.5358
-85.7414
-85.9732
-86.2301
-86.5156
-86.835
-87.1902
-87.5425
-85.0436
-85.0681
-85.1171
-85.1905
-85.2881
-85.4092
-85.5528
-85.7183
-85.9055
-86.1133
-86.3362
-86.565
-86.7647
-86.7798
-85.8237
-85.2614
-85.2842
-85.3296
-85.3977
-85.488
-85.5997
-85.7318
-85.8831
-86.0531
-86.2395
-86.4354
-86.6321
-86.8195
-87.0413
-87.8887
-85.4609
-85.4819
-85.5239
-85.5868
-85.6701
-85.773
-85.8941
-86.0325
-86.1872
-86.3558
-86.5312
-86.7033
-86.8472
-86.8657
-86.1714
-85.6432
-85.6625
-85.7013
-85.7592
-85.8358
-85.9303
-86.0414
-86.168
-86.3095
-86.4642
-86.6265
-86.7917
-86.959
-87.1825
-87.9953
-85.8094
-85.8272
-85.8628
-85.916
-85.9863
-86.0729
-86.1747
-86.2907
-86.4207
-86.564
-86.7168
-86.8761
-87.0289
-87.0876
-86.4364
-85.9606
-85.9769
-86.0095
-86.0583
-86.1227
-86.2019
-86.295
-86.4011
-86.5207
-86.6539
-86.7998
-86.9628
-87.1609
-87.4831
-88.5015
-86.0979
-86.1128
-86.1426
-86.1871
-86.2459
-86.3182
-86.403
-86.4998
-86.6091
-86.7319
-86.8681
-87.0228
-87.2039
-87.3927
-87.2731
-86.2223
-86.2358
-86.263
-86.3035
-86.357
-86.4226
-86.4995
-86.5872
-86.6862
-86.7974
-86.9207
-87.062
-87.2386
-87.514
-88.2144
-86.3346
-86.3469
-86.3715
-86.4083
-86.4568
-86.5162
-86.5855
-86.6642
-86.7527
-86.8512
-86.9581
-87.0744
-87.2016
-87.3379
-87.4641
-86.4358
-86.4469
-86.4692
-86.5025
-86.5462
-86.5997
-86.6619
-86.7321
-86.8103
-86.8961
-86.9861
-87.0768
-87.1555
-87.1664
-86.8386
-86.5266
-86.5367
-86.5568
-86.5868
-86.6262
-86.6741
-86.7296
-86.7918
-86.8605
-86.935
-87.011
-87.0852
-87.1534
-87.2277
-87.5025
-86.6079
-86.617
-86.6351
-86.662
-86.6973
-86.7402
-86.7896
-86.8445
-86.9048
-86.9695
-87.0344
-87.0956
-87.1443
-87.1473
-86.9144
-86.6803
-86.6885
-86.7047
-86.7289
-86.7605
-86.7988
-86.8426
-86.8911
-86.9441
-87.0008
-87.0575
-87.1123
-87.164
-87.2282
-87.4728
-86.7445
-86.7518
-86.7664
-86.788
-86.8163
-86.8504
-86.8893
-86.9321
-86.9788
-87.0289
-87.0794
-87.1287
-87.1722
-87.1815
-86.9667
-86.8011
-86.8077
-86.8207
-86.8401
-86.8654
-86.8957
-86.9301
-86.9679
-87.0091
-87.0537
-87.0993
-87.1469
-87.2013
-87.2879
-87.5794
-86.8506
-86.8565
-86.8682
-86.8855
-86.9081
-86.9351
-86.9656
-86.9989
-87.0352
-87.0746
-87.1152
-87.1581
-87.2051
-87.2496
-87.2
-86.8935
-86.8987
-86.9092
-86.9248
-86.945
-86.9691
-86.9961
-87.0253
-87.0571
-87.0916
-87.1268
-87.1641
-87.2079
-87.2743
-87.4525
-86.9301
-86.9349
-86.9443
-86.9584
-86.9765
-86.998
-87.0219
-87.0476
-87.0752
-87.1049
-87.1342
-87.1633
-87.1923
-87.2189
-87.2356
-86.961
-86.9653
-86.9739
-86.9865
-87.0029
-87.0222
-87.0435
-87.066
-87.09
-87.1153
-87.1391
-87.1604
-87.1754
-87.1679
-87.0667
-86.9863
-86.9902
-86.9981
-87.0096
-87.0245
-87.042
-87.0611
-87.081
-87.1019
-87.1236
-87.1431
-87.1594
-87.1712
-87.1798
-87.2309
-87.0063
-87.01
-87.0172
-87.0279
-87.0417
-87.0577
-87.075
-87.0929
-87.1114
-87.1303
-87.1467
-87.1594
-87.1664
-87.1597
-87.1002
-87.0213
-87.0247
-87.0316
-87.0416
-87.0545
-87.0695
-87.0855
-87.1019
-87.1187
-87.1357
-87.15
-87.161
-87.1683
-87.1738
-87.2077
-87.0313
-87.0346
-87.0412
-87.0509
-87.0632
-87.0775
-87.0927
-87.1082
-87.124
-87.1398
-87.153
-87.163
-87.1687
-87.1657
-87.1321
-87.0366
-87.0398
-87.0463
-87.0557
-87.0679
-87.0819
-87.0967
-87.1118
-87.1272
-87.1427
-87.1556
-87.1655
-87.1723
-87.1764
-87.192
-87.037
-87.0403
-87.0467
-87.0563
-87.0685
-87.0826
-87.0976
-87.1128
-87.1284
-87.1442
-87.1576
-87.168
-87.175
-87.1768
-87.1766
-87.0327
-87.036
-87.0427
-87.0525
-87.0651
-87.0796
-87.0952
-87.1111
-87.1276
-87.1444
-87.1589
-87.1707
-87.1783
-87.1763
-87.1483
-87.0235
-87.027
-87.034
-87.0443
-87.0576
-87.073
-87.0896
-87.1067
-87.1245
-87.1429
-87.1595
-87.1739
-87.1855
-87.1914
-87.186
-87.0093
-87.0131
-87.0206
-87.0316
-87.0459
-87.0625
-87.0805
-87.0993
-87.1191
-87.1397
-87.1589
-87.1768
-87.1938
-87.2122
-87.2562
-86.9899
-86.994
-87.0022
-87.0143
-87.0298
-87.048
-87.0679
-87.0889
-87.1111
-87.1344
-87.1567
-87.1779
-87.1983
-87.2127
-87.1857
-86.9652
-86.9697
-86.9787
-86.992
-87.0091
-87.0293
-87.0515
-87.0752
-87.1003
-87.1268
-87.1524
-87.1775
-87.204
-87.2397
-87.3404
-86.9349
-86.9399
-86.9498
-86.9645
-86.9835
-87.0061
-87.0312
-87.058
-87.0866
-87.1167
-87.1458
-87.1738
-87.2005
-87.2191
-87.1659
-86.8985
-86.9041
-86.9151
-86.9315
-86.9528
-86.9782
-87.0065
-87.0371
-87.0698
-87.1042
-87.1373
-87.1686
-87.1998
-87.2462
-87.4264
-86.8557
-86.8619
-86.8743
-86.8927
-86.9165
-86.9451
-86.9773
-87.0123
-87.0499
-87.0895
-87.1274
-87.1612
-87.1856
-87.1779
-87.009
-86.8061
-86.813
-86.8269
-86.8474
-86.8743
-86.9065
-86.9432
-86.9833
-87.0268
-87.0728
-87.1175
-87.1582
-87.1909
-87.2193
-87.3504
-86.7491
-86.7569
-86.7724
-86.7954
-86.8255
-86.8619
-86.9035
-86.9495
-86.9999
-87.0539
-87.1078
-87.1584
-87.1963
-87.1868
-86.9748
-86.6842
-86.6929
-86.7101
-86.7359
-86.7696
-86.8106
-86.8577
-86.9103
-86.9685
-87.0318
-87.0977
-87.165
-87.2319
-87.2925
-87.3334
-86.6107
-86.6203
-86.6396
-86.6683
-86.706
-86.7519
-86.8051
-86.8648
-86.9314
-87.005
-87.0838
-87.1697
-87.2689
-87.4094
-87.757
-86.528
-86.5387
-86.56
-86.5919
-86.6339
-86.6851
-86.7447
-86.8121
-86.8875
-86.9714
-87.0624
-87.1627
-87.2743
-87.3803
-87.3007
-86.4352
-86.4471
-86.4707
-86.506
-86.5525
-86.6095
-86.676
-86.7513
-86.8358
-86.9297
-87.0319
-87.1456
-87.2808
-87.4776
-87.984
-86.3317
-86.3448
-86.3708
-86.4098
-86.4612
-86.5243
-86.598
-86.6817
-86.7754
-86.8791
-86.9906
-87.1111
-87.2416
-87.3575
-87.1917
-86.2166
-86.2309
-86.2596
-86.3024
-86.359
-86.4285
-86.5101
-86.6027
-86.7062
-86.8199
-86.9404
-87.0675
-87.2095
-87.4305
-88.1857
-86.0889
-86.1046
-86.136
-86.1829
-86.2449
-86.3214
-86.4113
-86.5136
-86.6279
-86.7528
-86.8828
-87.0111
-87.1198
-87.1302
-86.5601
-85.9478
-85.9649
-85.9991
-86.0503
-86.1182
-86.202
-86.3007
-86.4137
-86.5403
-86.6789
-86.8235
-86.966
-87.0953
-87.2305
-87.7571
-85.7922
-85.8108
-85.8479
-85.9036
-85.9775
-86.069
-86.1773
-86.3017
-86.4423
-86.5978
-86.7628
-86.9278
-87.0636
-87.0564
-86.3727
-85.6211
-85.6412
-85.6814
-85.7417
-85.8218
-85.9213
-86.0395
-86.1761
-86.3318
-86.5069
-86.6992
-86.9076
-87.1283
-87.3496
-87.5359
-85.4336
-85.4552
-85.4985
-85.5634
-85.6499
-85.7575
-85.8857
-86.0346
-86.2057
-86.401
-86.6217
-86.8763
-87.1897
-87.6645
-88.8661
-85.2284
-85.2516
-85.298
-85.3677
-85.4606
-85.5762
-85.7144
-85.8753
-86.0609
-86.274
-86.5178
-86.8018
-87.136
-87.4721
-87.2257
-85.0045
-85.0293
-85.0789
-85.1533
-85.2526
-85.3763
-85.5241
-85.6963
-85.8949
-86.1226
-86.3831
-86.6899
-87.078
-87.6816
-89.2951
-84.7609
-84.7873
-84.84
-84.9192
-85.0248
-85.1564
-85.3137
-85.4966
-85.7065
-85.9451
-86.2136
-86.5189
-86.8674
-87.1871
-86.6447
-84.4964
-84.5243
-84.5802
-84.6642
-84.7761
-84.9157
-85.0822
-85.2756
-85.496
-85.7435
-86.0155
-86.3156
-86.6736
-87.2888
-89.5342
-84.21
-84.2395
-84.2985
-84.3872
-84.5055
-84.653
-84.8291
-85.0332
-85.2648
-85.5216
-85.795
-86.0697
-86.2979
-86.2558
-84.5188
-83.9006
-83.9315
-83.9937
-84.0871
-84.2117
-84.3673
-84.5533
-84.7691
-85.014
-85.2847
-85.5707
-85.8535
-86.1068
-86.3972
-87.8383
-83.567
-83.5995
-83.6647
-83.7627
-83.8937
-84.0575
-84.2537
-84.4822
-84.7431
-85.0341
-85.3457
-85.6552
-85.8868
-85.7368
-83.734
-83.2084
-83.2423
-83.3104
-83.4129
-83.55
-83.7219
-83.9285
-84.1704
-84.4491
-84.7658
-85.1192
-85.5085
-85.9285
-86.3602
-86.7406
-82.8236
-82.8589
-82.9297
-83.0364
-83.1795
-83.3591
-83.5757
-83.8305
-84.1265
-84.4688
-84.8647
-85.3379
-85.9588
-87.0164
-90.05
-82.4118
-82.4483
-82.5216
-82.6323
-82.7807
-82.9675
-83.1932
-83.4593
-83.7698
-84.1311
-84.5538
-85.062
-85.6826
-86.2977
-85.4155
-81.9722
-82.0097
-82.0852
-82.1993
-82.3526
-82.5458
-82.7794
-83.0549
-83.3756
-83.7473
-84.1805
-84.7056
-85.407
-86.6158
-90.2962
-81.5039
-81.5423
-81.6196
-81.7366
-81.8941
-82.0929
-82.3335
-82.6166
-82.9439
-83.3176
-83.7404
-84.2241
-84.7759
-85.2146
-83.5481
-81.0065
-81.0455
-81.1241
-81.2433
-81.4042
-81.6079
-81.8548
-82.1451
-82.478
-82.8505
-83.2551
-83.6926
-84.22
-85.2725
-89.904
-80.4796
-80.5189
-80.5981
-80.7185
-80.882
-81.0898
-81.343
-81.6414
-81.9826
-82.3578
-82.7439
-83.0962
-83.2962
-82.8423
-78.6362
-79.9231
-79.9621
-80.041
-80.1616
-80.3262
-80.5372
-80.7967
-81.1055
-81.4616
-81.8542
-82.2533
-82.6031
-82.8231
-83.0149
-85.3629
-79.3371
-79.3752
-79.4526
-79.5716
-79.7355
-79.948
-80.213
-80.5344
-80.9133
-81.3428
-81.7942
-82.1977
-82.3666
-81.6872
-77.4136
-78.7223
-78.7587
-78.833
-78.9482
-79.1084
-79.3192
-79.5873
-79.9208
-80.328
-80.8129
-81.3654
-81.9527
-82.4958
-82.8529
-82.8768
-78.0799
-78.1136
-78.1829
-78.2912
-78.4437
-78.6477
-78.9133
-79.2538
-79.6869
-80.2328
-80.9097
-81.7359
-82.7511
-84.2473
-88.3928
-77.4117
-77.4417
-77.5035
-77.6011
-77.7405
-77.9307
-78.1843
-78.5201
-78.9656
-79.5588
-80.3474
-81.3855
-82.6692
-83.7991
-82.0944
-76.7205
-76.7454
-76.7971
-76.8798
-76.9997
-77.1667
-77.3953
-77.708
-78.1401
-78.746
-79.6092
-80.8621
-82.6911
-85.3167
-89.3761
-76.0098
-76.0283
-76.0672
-76.1303
-76.2238
-76.3572
-76.5452
-76.8108
-77.192
-77.7516
-78.5976
-79.9364
-82.1568
-85.8359
-90.1509
-75.284
-75.2949
-75.3183
-75.3575
-75.4177
-75.5072
-75.6384
-75.8312
-76.1185
-76.5554
-77.2414
-78.3961
-80.6066
-85.9112
-103.315
-102.985
-85.525
-80.1209
-77.8785
-76.7345
-76.0766
-75.6722
-75.4151
-75.2484
-75.1389
-75.0667
-75.0197
-74.9902
-74.973
-74.9651
-90.5708
-85.3899
-81.5056
-79.2774
-77.9878
-77.2002
-76.6939
-76.3569
-76.1268
-75.9669
-75.8551
-75.7778
-75.7262
-75.6947
-75.6798
-88.4645
-84.3518
-81.7377
-80.0224
-78.8898
-78.1256
-77.5963
-77.2224
-76.9538
-76.7588
-76.6171
-76.5158
-76.4462
-76.4028
-76.382
-82.5701
-82.2701
-81.3429
-80.3605
-79.5332
-78.8852
-78.3891
-78.0126
-77.7272
-77.5111
-77.3487
-77.2295
-77.146
-77.0932
-77.0675
-76.918
-80.6212
-80.9839
-80.5888
-80.0491
-79.5365
-79.097
-78.7374
-78.4499
-78.2232
-78.0479
-77.9162
-77.8225
-77.7624
-77.7331
-83.2835
-81.2892
-81.1485
-80.9152
-80.5434
-80.1341
-79.7475
-79.41
-79.1274
-78.897
-78.7142
-78.5743
-78.4734
-78.4081
-78.376
-76.5146
-80.6671
-81.3746
-81.3354
-81.0609
-80.7128
-80.3621
-80.0423
-79.7658
-79.5348
-79.348
-79.2031
-79.0974
-79.0284
-78.9944
-85.4061
-82.4343
-82.1165
-81.9165
-81.6266
-81.2903
-80.9531
-80.6423
-80.3698
-80.1391
-79.9502
-79.8023
-79.6935
-79.6222
-79.5869
-77.8899
-82.3555
-82.7737
-82.5578
-82.2214
-81.8654