/*--------------------------------*- C++ -*----------------------------------*\
| =========                 |                                                 |
| \\      /  F ield         | OpenFOAM: The Open Source CFD Toolbox           |
|  \\    /   O peration     | Version:  5.x                                   |
|   \\  /    A nd           | Web:      www.OpenFOAM.org                      |
|    \\/     M anipulation  |                                                 |
\*---------------------------------------------------------------------------*/
FoamFile
{
    version     2.0;
    format      ascii;
    class       volScalarField;
    location    "0.5";
    object      T;
}
// * * * * * * * * * * * * * * * * * * * * * * * * * * * * * * * * * * * * * //

dimensions      [0 0 0 1 0 0 0];

internalField   nonuniform List<scalar> 
6300
(
322.675
322.025
321.377
320.731
320.088
319.449
318.815
318.187
317.566
316.953
316.349
315.755
315.171
314.598
314.038
322.675
322.024
321.375
320.728
320.084
319.444
318.81
318.181
317.559
316.945
316.34
315.744
315.159
314.586
314.025
322.674
322.021
321.37
320.722
320.076
319.435
318.798
318.167
317.543
316.928
316.321
315.723
315.137
314.562
314
322.672
322.017
321.364
320.713
320.064
319.42
318.781
318.147
317.52
316.902
316.292
315.692
315.103
314.526
313.961
322.671
322.012
321.355
320.7
320.048
319.4
318.757
318.12
317.49
316.867
316.254
315.65
315.058
314.477
313.91
322.668
322.006
321.345
320.685
320.029
319.376
318.729
318.087
317.451
316.824
316.205
315.597
315
314.416
313.845
322.666
321.998
321.332
320.667
320.006
319.348
318.694
318.046
317.405
316.772
316.147
315.533
314.931
314.341
313.766
322.663
321.99
321.317
320.647
319.979
319.314
318.654
318
317.352
316.711
316.079
315.458
314.849
314.253
313.672
322.66
321.98
321.301
320.623
319.949
319.277
318.609
317.947
317.29
316.641
316.001
315.372
314.754
314.151
313.563
322.656
321.969
321.283
320.598
319.915
319.235
318.559
317.888
317.222
316.563
315.913
315.273
314.645
314.033
313.437
322.652
321.957
321.263
320.57
319.879
319.19
318.505
317.824
317.147
316.477
315.815
315.162
314.522
313.898
313.293
322.648
321.945
321.242
320.541
319.841
319.142
318.447
317.755
317.066
316.383
315.707
315.039
314.383
313.743
313.126
322.644
321.932
321.22
320.51
319.8
319.092
318.386
317.682
316.98
316.283
315.59
314.904
314.228
313.567
312.932
322.64
321.919
321.198
320.478
319.758
319.04
318.322
317.606
316.891
316.178
315.467
314.76
314.058
313.367
312.701
322.635
321.905
321.175
320.445
319.716
318.987
318.258
317.529
316.801
316.072
315.342
314.61
313.877
313.141
312.413
313.536
313.09
312.653
312.227
311.811
311.405
311.011
310.627
310.255
309.894
309.545
309.208
308.882
308.568
308.265
307.974
307.695
307.426
307.169
306.922
306.686
306.459
306.243
306.036
305.837
305.648
305.466
305.292
305.126
304.966
304.813
304.665
304.523
304.386
304.254
304.126
304.002
303.881
303.763
303.648
303.535
303.423
303.314
303.205
303.097
302.989
302.881
302.773
302.663
302.553
302.441
302.327
302.21
302.091
301.969
301.842
301.712
301.577
301.437
301.292
301.141
300.984
300.821
300.65
300.471
300.285
300.09
299.887
299.674
299.452
299.219
298.977
298.724
298.46
298.185
297.898
297.6
297.29
296.967
296.633
296.287
295.928
295.558
295.175
294.78
294.373
293.955
293.526
293.085
292.634
313.523
313.076
312.639
312.212
311.796
311.39
310.995
310.611
310.239
309.878
309.529
309.191
308.866
308.552
308.249
307.958
307.679
307.411
307.154
306.907
306.671
306.446
306.23
306.023
305.825
305.636
305.455
305.282
305.116
304.957
304.804
304.657
304.516
304.38
304.248
304.121
303.997
303.877
303.759
303.645
303.532
303.421
303.312
303.204
303.096
302.989
302.882
302.774
302.665
302.555
302.444
302.33
302.214
302.096
301.974
301.848
301.718
301.584
301.445
301.301
301.15
300.994
300.831
300.66
300.482
300.297
300.103
299.9
299.687
299.466
299.234
298.992
298.739
298.476
298.201
297.914
297.616
297.306
296.984
296.65
296.304
295.945
295.575
295.192
294.797
294.39
293.971
293.541
293.1
292.648
313.496
313.048
312.61
312.183
311.765
311.359
310.964
310.579
310.207
309.845
309.496
309.158
308.833
308.519
308.217
307.926
307.647
307.38
307.123
306.878
306.643
306.418
306.203
305.998
305.801
305.613
305.434
305.262
305.097
304.939
304.788
304.642
304.502
304.367
304.236
304.11
303.987
303.868
303.752
303.639
303.527
303.417
303.309
303.202
303.096
302.989
302.883
302.776
302.669
302.56
302.449
302.337
302.222
302.105
301.984
301.86
301.731
301.598
301.46
301.317
301.168
301.013
300.851
300.682
300.505
300.32
300.127
299.925
299.714
299.494
299.263
299.022
298.77
298.507
298.233
297.947
297.65
297.34
297.019
296.685
296.338
295.98
295.609
295.226
294.83
294.423
294.003
293.572
293.13
292.677
313.456
313.007
312.567
312.138
311.72
311.313
310.916
310.531
310.158
309.796
309.446
309.109
308.783
308.469
308.167
307.878
307.6
307.333
307.078
306.834
306.6
306.377
306.163
305.96
305.765
305.579
305.401
305.231
305.068
304.912
304.762
304.619
304.48
304.347
304.219
304.094
303.973
303.856
303.741
303.629
303.519
303.411
303.305
303.199
303.094
302.99
302.885
302.78
302.674
302.567
302.458
302.347
302.234
302.118
301.999
301.877
301.75
301.619
301.483
301.341
301.194
301.041
300.881
300.713
300.539
300.356
300.165
299.964
299.755
299.536
299.307
299.067
298.817
298.555
298.282
297.997
297.7
297.392
297.07
296.737
296.39
296.032
295.66
295.277
294.881
294.472
294.052
293.62
293.176
292.721
313.402
312.951
312.51
312.079
311.659
311.251
310.853
310.467
310.093
309.73
309.38
309.042
308.716
308.403
308.102
307.813
307.536
307.27
307.017
306.774
306.543
306.321
306.11
305.909
305.716
305.533
305.357
305.19
305.03
304.876
304.729
304.588
304.452
304.321
304.195
304.073
303.954
303.839
303.727
303.617
303.509
303.403
303.299
303.195
303.093
302.99
302.888
302.785
302.681
302.576
302.469
302.361
302.25
302.137
302.02
301.9
301.775
301.647
301.513
301.374
301.229
301.079
300.921
300.756
300.584
300.403
300.214
300.017
299.809
299.592
299.365
299.128
298.879
298.619
298.347
298.064
297.768
297.46
297.139
296.806
296.46
296.101
295.73
295.345
294.948
294.539
294.117
293.683
293.237
292.78
313.334
312.88
312.437
312.004
311.583
311.173
310.774
310.386
310.011
309.647
309.296
308.958
308.632
308.319
308.018
307.731
307.455
307.192
306.94
306.7
306.47
306.252
306.043
305.845
305.656
305.475
305.303
305.139
304.982
304.831
304.687
304.549
304.417
304.289
304.166
304.046
303.931
303.818
303.709
303.602
303.497
303.394
303.292
303.191
303.091
302.991
302.891
302.79
302.689
302.587
302.483
302.378
302.27
302.159
302.046
301.928
301.807
301.681
301.551
301.415
301.273
301.126
300.971
300.809
300.64
300.463
300.277
300.082
299.878
299.663
299.439
299.203
298.957
298.699
298.429
298.148
297.853
297.546
297.227
296.894
296.548
296.189
295.817
295.432
295.034
294.623
294.199
293.763
293.315
292.855
313.251
312.795
312.349
311.914
311.491
311.079
310.678
310.289
309.912
309.547
309.195
308.856
308.53
308.217
307.918
307.631
307.357
307.096
306.847
306.609
306.383
306.168
305.963
305.768
305.582
305.406
305.237
305.077
304.924
304.778
304.637
304.503
304.374
304.25
304.13
304.015
303.902
303.793
303.687
303.584
303.482
303.382
303.283
303.185
303.088
302.991
302.894
302.797
302.699
302.6
302.5
302.398
302.293
302.186
302.076
301.962
301.845
301.723
301.596
301.464
301.326
301.182
301.031
300.873
300.708
300.534
300.352
300.161
299.96
299.749
299.527
299.295
299.051
298.796
298.529
298.249
297.956
297.651
297.332
297
296.654
296.295
295.922
295.536
295.137
294.725
294.299
293.861
293.409
292.945
313.154
312.694
312.246
311.809
311.383
310.969
310.566
310.175
309.795
309.429
309.075
308.735
308.409
308.097
307.798
307.514
307.242
306.984
306.737
306.503
306.28
306.069
305.868
305.677
305.496
305.324
305.161
305.005
304.857
304.715
304.579
304.45
304.325
304.205
304.09
303.978
303.87
303.765
303.662
303.562
303.464
303.368
303.273
303.179
303.085
302.992
302.899
302.805
302.711
302.616
302.519
302.421
302.32
302.218
302.112
302.002
301.889
301.771
301.649
301.521
301.388
301.248
301.102
300.948
300.787
300.618
300.44
300.253
300.056
299.849
299.631
299.402
299.162
298.91
298.645
298.368
298.078
297.774
297.456
297.125
296.779
296.42
296.047
295.66
295.26
294.846
294.418
293.976
293.521
293.053
313.04
312.577
312.126
311.687
311.26
310.843
310.438
310.043
309.661
309.292
308.936
308.594
308.268
307.957
307.66
307.378
307.109
306.854
306.611
306.38
306.161
305.955
305.759
305.573
305.398
305.231
305.073
304.923
304.78
304.643
304.513
304.389
304.269
304.154
304.044
303.936
303.833
303.732
303.634
303.539
303.445
303.353
303.262
303.172
303.082
302.993
302.903
302.814
302.724
302.633
302.541
302.447
302.351
302.253
302.152
302.047
301.939
301.827
301.709
301.587
301.458
301.324
301.182
301.034
300.878
300.714
300.541
300.359
300.167
299.965
299.751
299.526
299.29
299.041
298.78
298.506
298.219
297.917
297.601
297.27
296.924
296.564
296.19
295.803
295.401
294.986
294.556
294.111
293.652
293.178
312.909
312.443
311.99
311.549
311.12
310.702
310.294
309.896
309.509
309.135
308.776
308.433
308.106
307.796
307.502
307.223
306.957
306.706
306.467
306.24
306.026
305.825
305.635
305.456
305.287
305.126
304.975
304.83
304.693
304.563
304.439
304.321
304.207
304.098
303.992
303.89
303.791
303.696
303.603
303.512
303.423
303.336
303.249
303.164
303.078
302.993
302.908
302.823
302.738
302.652
302.565
302.476
302.386
302.293
302.197
302.098
301.995
301.889
301.777
301.66
301.538
301.409
301.273
301.13
300.98
300.822
300.655
300.479
300.293
300.096
299.887
299.667
299.434
299.19
298.933
298.663
298.379
298.08
297.766
297.435
297.089
296.728
296.353
295.965
295.563
295.146
294.714
294.266
293.802
293.323
312.759
312.29
311.836
311.395
310.966
310.547
310.135
309.732
309.339
308.959
308.594
308.248
307.921
307.612
307.322
307.047
306.787
306.539
306.305
306.083
305.874
305.679
305.496
305.324
305.163
305.01
304.865
304.728
304.598
304.474
304.357
304.246
304.139
304.036
303.936
303.839
303.746
303.655
303.568
303.483
303.399
303.317
303.236
303.155
303.074
302.993
302.913
302.833
302.753
302.672
302.591
302.508
302.423
302.336
302.246
302.153
302.057
301.957
301.852
301.742
301.626
301.503
301.373
301.236
301.093
300.942
300.782
300.613
300.434
300.243
300.039
299.824
299.596
299.356
299.105
298.84
298.561
298.266
297.953
297.622
297.275
296.912
296.536
296.147
295.745
295.328
294.895
294.444
293.975
293.488
312.586
312.115
311.662
311.225
310.8
310.38
309.964
309.553
309.15
308.76
308.387
308.036
307.708
307.403
307.12
306.853
306.598
306.355
306.124
305.907
305.703
305.515
305.34
305.178
305.026
304.882
304.745
304.615
304.492
304.377
304.268
304.165
304.065
303.969
303.875
303.784
303.696
303.611
303.53
303.451
303.374
303.298
303.222
303.146
303.07
302.994
302.918
302.842
302.768
302.694
302.619
302.543
302.465
302.384
302.3
302.214
302.125
302.032
301.936
301.833
301.724
301.607
301.484
301.353
301.216
301.073
300.923
300.763
300.592
300.408
300.209
299.998
299.774
299.539
299.294
299.038
298.767
298.476
298.166
297.834
297.482
297.115
296.735
296.346
295.948
295.534
295.101
294.647
294.172
293.678
312.384
311.915
311.464
311.04
310.626
310.207
309.788
309.363
308.946
308.534
308.15
307.79
307.463
307.164
306.894
306.64
306.393
306.155
305.924
305.71
305.511
305.331
305.167
305.018
304.879
304.744
304.616
304.492
304.377
304.269
304.171
304.078
303.987
303.898
303.811
303.725
303.641
303.562
303.487
303.416
303.348
303.278
303.209
303.138
303.066
302.993
302.921
302.851
302.783
302.715
302.649
302.581
302.51
302.435
302.357
302.278
302.196
302.114
302.027
301.933
301.832
301.721
301.604
301.478
301.349
301.214
301.076
300.93
300.768
300.592
300.398
300.19
299.967
299.737
299.5
299.257
298.999
298.716
298.408
298.072
297.713
297.333
296.949
296.559
296.171
295.769
295.337
294.881
294.395
293.895
312.142
311.689
311.229
310.84
310.461
310.035
309.619
309.164
308.732
308.272
307.876
307.496
307.18
306.885
306.644
306.419
306.175
305.945
305.701
305.492
305.293
305.125
304.971
304.843
304.725
304.599
304.48
304.356
304.25
304.15
304.066
303.989
303.906
303.827
303.743
303.664
303.58
303.508
303.438
303.379
303.322
303.26
303.198
303.13
303.063
302.99
302.924
302.857
302.796
302.736
302.681
302.624
302.559
302.492
302.416
302.344
302.27
302.201
302.129
302.043
301.953
301.846
301.735
301.608
301.487
301.361
301.243
301.117
300.965
300.801
300.607
300.403
300.168
299.946
299.712
299.497
299.268
298.99
298.693
298.34
297.976
297.557
297.17
296.77
296.414
296.046
295.607
295.156
294.641
294.147
311.821
311.471
310.895
310.624
310.366
309.848
309.508
308.931
308.559
307.918
307.579
307.114
306.864
306.53
306.371
306.224
305.94
305.752
305.431
305.259
305.028
304.902
304.737
304.656
304.582
304.443
304.351
304.196
304.113
304.006
303.954
303.906
303.82
303.762
303.669
303.607
303.504
303.449
303.375
303.339
303.304
303.24
303.195
303.121
303.069
302.978
302.927
302.853
302.81
302.748
302.715
302.68
302.612
302.561
302.468
302.414
302.335
302.293
302.249
302.162
302.096
301.977
301.89
301.729
301.635
301.495
301.421
301.341
301.178
301.055
300.828
300.662
300.351
300.17
299.897
299.757
299.607
299.291
299.057
298.625
298.315
297.736
297.408
296.917
296.675
296.423
295.894
295.524
294.854
294.467
292.126
291.558
290.977
290.383
289.778
289.163
288.538
287.906
287.266
286.62
285.969
285.313
284.655
283.994
283.331
292.14
291.571
290.989
290.394
289.788
289.172
288.546
287.913
287.272
286.625
285.973
285.316
284.657
283.995
283.332
292.167
291.597
291.013
290.416
289.808
289.19
288.562
287.927
287.284
286.635
285.981
285.323
284.661
283.998
283.333
292.209
291.636
291.049
290.45
289.839
289.217
288.587
287.948
287.302
286.65
285.993
285.332
284.668
284.002
283.334
292.265
291.689
291.098
290.494
289.879
289.253
288.619
287.976
287.326
286.67
286.009
285.344
284.677
284.007
283.336
292.336
291.755
291.159
290.55
289.93
289.299
288.659
288.01
287.355
286.695
286.029
285.36
284.688
284.013
283.338
292.422
291.835
291.233
290.618
289.991
289.353
288.706
288.052
287.391
286.724
286.053
285.378
284.701
284.021
283.34
292.524
291.93
291.32
290.697
290.062
289.416
288.761
288.099
287.431
286.758
286.08
285.399
284.715
284.03
283.343
292.643
292.04
291.421
290.788
290.143
289.488
288.824
288.153
287.477
286.795
286.11
285.422
284.732
284.04
283.347
292.779
292.166
291.536
290.891
290.234
289.568
288.893
288.213
287.527
286.837
286.144
285.448
284.75
284.05
283.35
292.935
292.309
291.664
291.005
290.335
289.655
288.969
288.277
287.581
286.882
286.179
285.475
284.769
284.062
283.354
293.113
292.47
291.808
291.131
290.444
289.749
289.05
288.346
287.639
286.929
286.217
285.504
284.789
284.074
283.358
293.316
292.651
291.965
291.266
290.56
289.848
289.134
288.417
287.699
286.978
286.257
285.534
284.811
284.087
283.362
293.553
292.854
292.135
291.408
290.68
289.951
289.221
288.491
287.76
287.029
286.297
285.565
284.832
284.1
283.367
293.84
293.076
292.311
291.553
290.801
290.053
289.308
288.564
287.822
287.079
286.338
285.596
284.854
284.113
283.371
322.631
321.892
321.154
320.416
319.677
318.938
318.199
317.459
316.718
315.975
315.228
314.476
313.713
312.927
312.076
322.627
321.881
321.135
320.389
319.642
318.894
318.146
317.396
316.644
315.889
315.129
314.362
313.581
312.778
311.943
322.623
321.87
321.116
320.362
319.607
318.851
318.094
317.335
316.573
315.807
315.036
314.256
313.464
312.653
311.809
322.62
321.859
321.098
320.336
319.573
318.809
318.044
317.276
316.505
315.73
314.949
314.16
313.361
312.549
311.73
322.616
321.848
321.08
320.311
319.54
318.769
317.995
317.219
316.44
315.656
314.867
314.072
313.267
312.451
311.611
322.613
321.838
321.062
320.286
319.509
318.729
317.948
317.165
316.377
315.586
314.79
313.989
313.182
312.37
311.554
322.609
321.828
321.045
320.262
319.478
318.692
317.904
317.113
316.318
315.52
314.718
313.911
313.101
312.291
311.498
322.606
321.818
321.029
320.24
319.449
318.656
317.861
317.063
316.262
315.457
314.649
313.836
313.019
312.202
311.38
322.603
321.809
321.014
320.218
319.421
318.622
317.82
317.016
316.209
315.398
314.582
313.763
312.94
312.115
311.302
322.6
321.8
320.999
320.197
319.394
318.589
317.782
316.972
316.158
315.341
314.519
313.693
312.861
312.021
311.163
322.597
321.792
320.985
320.178
319.369
318.559
317.746
316.93
316.111
315.288
314.46
313.627
312.788
311.941
311.09
322.595
321.784
320.972
320.159
319.345
318.53
317.711
316.89
316.066
315.238
314.405
313.566
312.72
311.864
310.988
322.592
321.776
320.96
320.142
319.323
318.502
317.679
316.853
316.024
315.191
314.354
313.51
312.66
311.801
310.935
322.59
321.769
320.948
320.126
319.302
318.477
317.649
316.819
315.985
315.148
314.307
313.46
312.606
311.744
310.864
322.588
321.763
320.937
320.111
319.283
318.453
317.621
316.787
315.95
315.109
314.264
313.414
312.559
311.699
310.832
322.586
321.756
320.927
320.096
319.264
318.431
317.595
316.757
315.916
315.072
314.224
313.372
312.516
311.658
310.804
322.584
321.751
320.917
320.083
319.247
318.41
317.571
316.73
315.886
315.038
314.188
313.333
312.475
311.614
310.748
322.582
321.745
320.908
320.071
319.232
318.391
317.549
316.704
315.857
315.007
314.154
313.297
312.437
311.574
310.713
322.58
321.741
320.9
320.059
319.217
318.374
317.528
316.681
315.831
314.979
314.123
313.264
312.401
311.533
310.655
322.579
321.736
320.893
320.049
319.204
318.357
317.509
316.659
315.807
314.953
314.095
313.234
312.369
311.499
310.626
322.577
321.732
320.886
320.039
319.191
318.343
317.492
316.64
315.785
314.929
314.069
313.207
312.34
311.469
310.588
322.576
321.728
320.879
320.03
319.18
318.329
317.476
316.622
315.765
314.907
314.046
313.182
312.316
311.446
310.572
322.575
321.724
320.873
320.022
319.17
318.316
317.461
316.605
315.747
314.887
314.025
313.16
312.294
311.425
310.558
322.574
321.721
320.868
320.014
319.16
318.305
317.448
316.59
315.73
314.869
314.006
313.14
312.273
311.404
310.532
322.573
321.718
320.863
320.008
319.151
318.294
317.436
316.576
315.715
314.853
313.988
313.122
312.254
311.385
310.517
322.572
321.715
320.859
320.001
319.143
318.285
317.425
316.564
315.701
314.838
313.972
313.105
312.236
311.366
310.493
322.571
321.713
320.854
319.996
319.136
318.276
317.415
316.552
315.689
314.824
313.958
313.09
312.22
311.349
310.478
322.57
321.711
320.851
319.99
319.13
318.268
317.405
316.542
315.677
314.812
313.944
313.076
312.205
311.332
310.455
322.57
321.709
320.847
319.986
319.124
318.261
317.397
316.533
315.667
314.801
313.933
313.063
312.192
311.319
310.444
322.569
321.707
320.844
319.981
319.118
318.254
317.39
316.524
315.658
314.791
313.922
313.052
312.181
311.307
310.43
322.568
321.705
320.841
319.978
319.113
318.248
317.383
316.517
315.65
314.782
313.913
313.042
312.171
311.298
310.424
322.568
321.703
320.839
319.974
319.109
318.243
317.377
316.51
315.642
314.774
313.904
313.034
312.163
311.291
310.419
322.567
321.702
320.837
319.971
319.105
318.238
317.371
316.504
315.636
314.767
313.897
313.026
312.155
311.283
310.411
322.567
321.701
320.835
319.968
319.101
318.234
317.367
316.498
315.63
314.76
313.89
313.02
312.148
311.277
310.405
322.567
321.7
320.833
319.966
319.098
318.23
317.362
316.494
315.624
314.755
313.884
313.014
312.142
311.27
310.398
322.566
321.699
320.831
319.963
319.095
318.227
317.358
316.489
315.62
314.75
313.879
313.008
312.137
311.265
310.393
322.566
321.698
320.83
319.962
319.093
318.224
317.355
316.486
315.616
314.745
313.875
313.003
312.132
311.259
310.386
322.566
321.697
320.829
319.96
319.091
318.222
317.352
316.482
315.612
314.742
313.871
312.999
312.128
311.255
310.383
322.566
321.697
320.828
319.958
319.089
318.22
317.35
316.48
315.609
314.738
313.867
312.996
312.124
311.252
310.379
322.565
321.696
320.827
319.957
319.087
318.218
317.348
316.477
315.607
314.736
313.864
312.993
312.121
311.249
310.377
322.565
321.696
320.826
319.956
319.086
318.216
317.346
316.475
315.604
314.733
313.862
312.991
312.119
311.247
310.376
322.565
321.695
320.825
319.955
319.085
318.215
317.344
316.474
315.603
314.731
313.86
312.989
312.117
311.245
310.373
322.565
321.695
320.825
319.955
319.084
318.214
317.343
316.472
315.601
314.73
313.859
312.987
312.115
311.244
310.372
322.565
321.695
320.824
319.954
319.084
318.213
317.342
316.471
315.6
314.729
313.857
312.986
312.114
311.243
310.371
322.565
321.695
320.824
319.954
319.083
318.212
317.342
316.471
315.599
314.728
313.857
312.985
312.113
311.242
310.37
322.565
321.694
320.824
319.954
319.083
318.212
317.341
316.47
315.599
314.728
313.856
312.985
312.113
311.241
310.369
322.565
321.694
320.824
319.954
319.083
318.212
317.341
316.47
315.599
314.728
313.856
312.984
312.113
311.241
310.369
322.565
321.695
320.824
319.954
319.083
318.212
317.341
316.47
315.599
314.728
313.856
312.985
312.113
311.241
310.369
322.565
321.695
320.824
319.954
319.083
318.213
317.342
316.471
315.6
314.729
313.857
312.985
312.114
311.242
310.37
322.565
321.695
320.825
319.954
319.084
318.214
317.343
316.472
315.601
314.73
313.858
312.986
312.114
311.242
310.37
322.565
321.695
320.825
319.955
319.085
318.215
317.344
316.473
315.602
314.731
313.859
312.988
312.116
311.244
310.372
322.565
321.696
320.826
319.956
319.086
318.216
317.345
316.475
315.604
314.733
313.861
312.99
312.118
311.246
310.373
322.565
321.696
320.827
319.957
319.087
318.217
317.347
316.477
315.606
314.735
313.864
312.992
312.12
311.248
310.376
322.566
321.697
320.827
319.958
319.089
318.219
317.349
316.479
315.608
314.738
313.866
312.995
312.123
311.251
310.378
322.566
321.697
320.828
319.96
319.091
318.221
317.352
316.482
315.611
314.741
313.87
312.998
312.126
311.255
310.383
322.566
321.698
320.83
319.961
319.093
318.224
317.355
316.485
315.615
314.744
313.874
313.002
312.13
311.258
310.386
322.566
321.699
320.831
319.963
319.095
318.227
317.358
316.489
315.619
314.749
313.878
313.007
312.135
311.263
310.391
322.567
321.7
320.833
319.966
319.098
318.23
317.362
316.493
315.624
314.754
313.883
313.012
312.14
311.267
310.394
322.567
321.701
320.835
319.968
319.101
318.234
317.366
316.498
315.629
314.759
313.889
313.018
312.145
311.272
310.397
322.567
321.702
320.837
319.971
319.105
318.238
317.371
316.503
315.635
314.766
313.895
313.024
312.152
311.279
310.405
322.568
321.703
320.839
319.974
319.109
318.243
317.377
316.509
315.642
314.773
313.903
313.032
312.16
311.287
310.411
322.568
321.705
320.841
319.978
319.113
318.248
317.383
316.516
315.649
314.781
313.912
313.041
312.169
311.296
310.422
322.569
321.707
320.844
319.982
319.118
318.254
317.39
316.524
315.658
314.79
313.921
313.051
312.18
311.307
310.431
322.57
321.709
320.847
319.986
319.124
318.261
317.397
316.533
315.667
314.8
313.932
313.063
312.192
311.32
310.449
322.57
321.711
320.851
319.991
319.13
318.268
317.406
316.542
315.678
314.812
313.944
313.075
312.205
311.333
310.46
322.571
321.713
320.855
319.996
319.137
318.277
317.415
316.553
315.689
314.824
313.957
313.089
312.219
311.348
310.478
322.572
321.716
320.859
320.002
319.144
318.286
317.426
316.565
315.702
314.838
313.972
313.104
312.234
311.362
310.487
322.573
321.718
320.864
320.008
319.152
318.296
317.437
316.578
315.717
314.854
313.989
313.121
312.251
311.377
310.498
322.574
321.722
320.869
320.016
319.162
318.306
317.45
316.592
315.732
314.871
314.007
313.141
312.271
311.398
310.522
322.575
321.725
320.874
320.023
319.171
318.318
317.464
316.608
315.75
314.89
314.027
313.162
312.294
311.421
310.54
322.576
321.729
320.88
320.032
319.182
318.331
317.479
316.625
315.769
314.911
314.05
313.187
312.32
311.449
310.576
322.578
321.733
320.887
320.041
319.194
318.345
317.495
316.644
315.79
314.934
314.075
313.214
312.349
311.48
310.603
322.579
321.737
320.894
320.051
319.206
318.361
317.513
316.664
315.813
314.959
314.102
313.243
312.381
311.517
310.656
322.581
321.741
320.902
320.062
319.22
318.377
317.533
316.686
315.837
314.986
314.132
313.275
312.415
311.552
310.687
322.582
321.746
320.91
320.073
319.235
318.395
317.554
316.71
315.864
315.015
314.163
313.308
312.45
311.591
310.736
322.584
321.752
320.919
320.086
319.251
318.415
317.576
316.736
315.893
315.047
314.198
313.345
312.488
311.626
310.76
322.586
321.758
320.929
320.099
319.268
318.435
317.601
316.764
315.924
315.081
314.235
313.384
312.528
311.665
310.788
322.588
321.764
320.939
320.113
319.286
318.458
317.627
316.794
315.958
315.118
314.275
313.427
312.574
311.714
310.848
322.59
321.77
320.95
320.129
319.306
318.482
317.655
316.826
315.994
315.159
314.319
313.475
312.625
311.767
310.893
322.593
321.777
320.962
320.145
319.327
318.507
317.685
316.86
316.033
315.202
314.366
313.527
312.682
311.831
310.978
322.595
321.785
320.974
320.162
319.349
318.534
317.717
316.897
316.074
315.248
314.417
313.583
312.743
311.898
311.038
322.598
321.793
320.987
320.181
319.373
318.563
317.751
316.936
316.118
315.297
314.471
313.642
312.809
311.976
311.152
322.6
321.801
321.001
320.2
319.398
318.594
317.787
316.978
316.165
315.349
314.528
313.704
312.876
312.047
311.216
322.603
321.81
321.016
320.221
319.424
318.626
317.825
317.022
316.215
315.404
314.588
313.768
312.944
312.12
311.31
322.606
321.819
321.031
320.242
319.452
318.66
317.866
317.069
316.267
315.462
314.651
313.835
313.012
312.185
311.355
322.61
321.829
321.047
320.265
319.482
318.696
317.909
317.118
316.324
315.524
314.719
313.906
313.084
312.251
311.399
322.613
321.839
321.064
320.289
319.512
318.734
317.954
317.17
316.383
315.591
314.792
313.984
313.164
312.331
311.488
322.616
321.849
321.082
320.313
319.544
318.773
318.001
317.225
316.446
315.663
314.872
314.07
313.254
312.417
311.548
322.62
321.86
321.099
320.338
319.577
318.814
318.05
317.283
316.513
315.739
314.958
314.167
313.36
312.524
311.643
322.624
321.871
321.118
320.364
319.611
318.856
318.1
317.343
316.584
315.821
315.053
314.276
313.485
312.664
311.767
294.175
293.281
292.465
291.679
290.907
290.144
289.386
288.631
287.877
287.126
286.375
285.624
284.874
284.124
283.375
294.292
293.413
292.584
291.783
290.998
290.223
289.454
288.689
287.927
287.167
286.408
285.65
284.892
284.135
283.378
294.37
293.511
292.683
291.876
291.082
290.298
289.52
288.746
287.975
287.207
286.44
285.675
284.91
284.146
283.382
294.413
293.586
292.767
291.959
291.16
290.368
289.582
288.8
288.022
287.246
286.472
285.699
284.927
284.156
283.385
294.456
293.655
292.844
292.035
291.232
290.434
289.641
288.852
288.067
287.283
286.502
285.722
284.944
284.166
283.389
294.544
293.731
292.919
292.108
291.3
290.497
289.698
288.902
288.109
287.319
286.531
285.745
284.96
284.176
283.392
294.605
293.805
292.992
292.178
291.365
290.556
289.751
288.949
288.15
287.354
286.56
285.767
284.975
284.185
283.395
294.715
293.888
293.066
292.246
291.428
290.613
289.802
288.994
288.189
287.387
286.586
285.788
284.99
284.194
283.398
294.786
293.967
293.139
292.312
291.488
290.667
289.85
289.037
288.226
287.418
286.612
285.808
285.004
284.202
283.401
294.912
294.053
293.21
292.375
291.545
290.719
289.896
289.077
288.261
287.448
286.636
285.826
285.018
284.21
283.403
294.978
294.126
293.277
292.435
291.599
290.767
289.94
289.116
288.294
287.476
286.659
285.844
285.031
284.218
283.406
295.07
294.195
293.339
292.491
291.649
290.813
289.98
289.152
288.326
287.502
286.681
285.861
285.043
284.225
283.408
295.118
294.253
293.393
292.542
291.696
290.855
290.019
289.185
288.355
287.527
286.701
285.877
285.054
284.232
283.411
295.183
294.305
293.443
292.588
291.739
290.895
290.054
289.217
288.382
287.55
286.72
285.892
285.065
284.239
283.413
295.212
294.347
293.486
292.63
291.779
290.931
290.087
289.246
288.408
287.572
286.738
285.906
285.075
284.245
283.415
295.239
294.385
293.526
292.669
291.815
290.965
290.118
289.274
288.432
287.593
286.755
285.919
285.084
284.25
283.417
295.291
294.425
293.564
292.705
291.849
290.996
290.146
289.299
288.454
287.612
286.771
285.931
285.093
284.255
283.418
295.324
294.463
293.6
292.739
291.88
291.025
290.172
289.322
288.475
287.629
286.785
285.943
285.101
284.26
283.42
295.38
294.503
293.634
292.77
291.909
291.051
290.196
289.344
288.494
287.645
286.798
285.953
285.109
284.265
283.422
295.409
294.536
293.665
292.799
291.936
291.076
290.219
289.364
288.511
287.66
286.811
285.963
285.116
284.269
283.423
295.447
294.566
293.693
292.825
291.96
291.098
290.239
289.382
288.527
287.674
286.822
285.972
285.122
284.273
283.424
295.467
294.59
293.717
292.848
291.982
291.118
290.258
289.399
288.542
287.687
286.833
285.98
285.128
284.276
283.425
295.492
294.612
293.738
292.868
292.001
291.137
290.274
289.414
288.555
287.698
286.842
285.987
285.133
284.28
283.427
295.504
294.629
293.756
292.886
292.019
291.153
290.29
289.428
288.568
287.709
286.851
285.994
285.138
284.283
283.428
295.514
294.644
293.773
292.903
292.034
291.168
290.303
289.44
288.579
287.718
286.859
286
285.143
284.285
283.428
295.532
294.659
293.788
292.917
292.049
291.181
290.316
289.452
288.589
287.727
286.866
286.006
285.147
284.288
283.429
295.544
294.673
293.801
292.931
292.061
291.194
290.327
289.462
288.598
287.735
286.873
286.011
285.151
284.29
283.43
295.563
294.687
293.814
292.943
292.073
291.204
290.337
289.471
288.606
287.742
286.879
286.016
285.154
284.292
283.431
295.573
294.699
293.825
292.954
292.083
291.214
290.346
289.479
288.613
287.748
286.884
286.02
285.157
284.294
283.431
295.585
294.709
293.835
292.963
292.093
291.223
290.354
289.487
288.62
287.754
286.889
286.024
285.16
284.296
283.432
295.592
294.717
293.844
292.972
292.101
291.231
290.362
289.493
288.626
287.759
286.893
286.027
285.162
284.297
283.432
295.6
294.724
293.851
292.979
292.108
291.237
290.368
289.499
288.631
287.764
286.897
286.03
285.164
284.299
283.433
295.603
294.73
293.857
292.985
292.114
291.243
290.374
289.504
288.636
287.768
286.9
286.033
285.166
284.3
283.433
295.606
294.735
293.862
292.991
292.119
291.249
290.379
289.509
288.64
287.771
286.903
286.036
285.168
284.301
283.434
295.612
294.739
293.867
292.995
292.124
291.253
290.383
289.513
288.644
287.775
286.906
286.038
285.17
284.302
283.434
295.615
294.743
293.871
293
292.128
291.257
290.387
289.517
288.647
287.777
286.908
286.04
285.171
284.302
283.434
295.62
294.747
293.875
293.003
292.132
291.261
290.39