/*--------------------------------*- C++ -*----------------------------------*\
| =========                 |                                                 |
| \\      /  F ield         | OpenFOAM: The Open Source CFD Toolbox           |
|  \\    /   O peration     | Version:  5.x                                   |
|   \\  /    A nd           | Web:      www.OpenFOAM.org                      |
|    \\/     M anipulation  |                                                 |
\*---------------------------------------------------------------------------*/
FoamFile
{
    version     2.0;
    format      ascii;
    class       volScalarField;
    location    "4.5";
    object      gradTx;
}
// * * * * * * * * * * * * * * * * * * * * * * * * * * * * * * * * * * * * * //

dimensions      [0 -1 0 1 0 0 0];

internalField   nonuniform List<scalar> 
6300
(
-50.7089
-50.6905
-50.6536
-50.5981
-50.5239
-50.4307
-50.3187
-50.1878
-50.0386
-49.8717
-49.6882
-49.4895
-49.277
-49.0525
-48.8171
-50.7276
-50.7093
-50.6726
-50.6172
-50.5431
-50.45
-50.3378
-50.2065
-50.0566
-49.8887
-49.7038
-49.5035
-49.2895
-49.0636
-48.8275
-50.7651
-50.7469
-50.7105
-50.6555
-50.5817
-50.4887
-50.3763
-50.2443
-50.093
-49.923
-49.7353
-49.5317
-49.3142
-49.0854
-48.8476
-50.821
-50.8031
-50.7672
-50.7129
-50.6398
-50.5472
-50.4347
-50.3018
-50.1486
-49.9753
-49.7832
-49.574
-49.3507
-49.1166
-48.8753
-50.8952
-50.8778
-50.8428
-50.7896
-50.7176
-50.626
-50.5137
-50.3801
-50.2245
-50.0469
-49.8484
-49.631
-49.3983
-49.1553
-48.9075
-50.987
-50.9704
-50.9368
-50.8855
-50.8156
-50.7257
-50.6146
-50.4807
-50.3226
-50.1399
-49.9328
-49.7036
-49.4567
-49.1991
-48.9395
-51.0959
-51.0803
-51.0488
-51.0003
-50.9337
-50.8472
-50.7386
-50.6057
-50.4459
-50.2575
-50.0398
-49.7943
-49.5263
-49.2452
-48.9646
-51.2207
-51.2066
-51.178
-51.1337
-51.0721
-50.991
-50.8874
-50.7578
-50.5983
-50.4049
-50.1748
-49.908
-49.6093
-49.291
-48.9739
-51.3599
-51.3479
-51.3232
-51.2847
-51.2304
-51.1576
-51.0625
-50.9403
-50.7848
-50.5893
-50.3471
-50.054
-49.7123
-49.3361
-48.9558
-51.5116
-51.5021
-51.4826
-51.4518
-51.4076
-51.3469
-51.2652
-51.1563
-51.0118
-50.8207
-50.5705
-50.2489
-49.8501
-49.3856
-48.8973
-51.673
-51.6667
-51.6537
-51.6326
-51.6016
-51.5575
-51.4955
-51.4084
-51.2856
-51.1117
-50.8655
-50.5211
-50.0539
-49.4593
-48.7868
-51.841
-51.8385
-51.8331
-51.8238
-51.8091
-51.7863
-51.7511
-51.6965
-51.6108
-51.4752
-51.2592
-50.9165
-50.3854
-49.611
-48.6216
-52.012
-52.0136
-52.0167
-52.0208
-52.0251
-52.0279
-52.0266
-52.0159
-51.9862
-51.9193
-51.7798
-51.5005
-50.9605
-49.9783
-48.4291
-52.1816
-52.1876
-52.1997
-52.218
-52.2428
-52.2741
-52.3117
-52.3545
-52.3992
-52.4361
-52.4404
-52.3456
-51.9782
-50.913
-48.3563
-52.3456
-52.3559
-52.3768
-52.4091
-52.4543
-52.5142
-52.5919
-52.6917
-52.82
-52.9859
-53.2003
-53.4636
-53.6943
-53.3398
-49.3014
-48.5929
-48.3813
-48.162
-47.9337
-47.6947
-47.443
-47.1763
-46.8924
-46.5896
-46.2666
-45.9227
-45.5583
-45.1743
-44.7722
-44.354
-43.9222
-43.4793
-43.028
-42.5714
-42.1122
-41.6533
-41.1977
-40.7481
-40.307
-39.8765
-39.4586
-39.0547
-38.6657
-38.2923
-37.9346
-37.5924
-37.265
-36.9517
-36.6512
-36.3622
-36.0833
-35.8132
-35.5506
-35.294
-35.0423
-34.7945
-34.5494
-34.3064
-34.0648
-33.8244
-33.5853
-33.3481
-33.1138
-32.8835
-32.6586
-32.4409
-32.2319
-32.0329
-31.8453
-31.6702
-31.5082
-31.36
-31.2258
-31.1056
-30.9993
-30.9067
-30.8273
-30.7608
-30.7068
-30.6652
-30.6356
-30.6181
-30.6125
-30.6188
-30.6369
-30.6667
-30.7083
-30.7618
-30.8272
-30.9046
-30.9941
-31.0957
-31.2094
-31.335
-31.4723
-31.621
-31.7807
-31.951
-32.1313
-32.3208
-32.5185
-32.7233
-32.9334
-33.1473
-33.3628
-48.6034
-48.3928
-48.1752
-47.9494
-47.7135
-47.465
-47.2014
-46.9201
-46.6191
-46.2968
-45.9527
-45.587
-45.2007
-44.7957
-44.3741
-43.9385
-43.4916
-43.0362
-42.5754
-42.1119
-41.649
-41.1894
-40.7362
-40.2919
-39.8588
-39.4388
-39.0334
-38.6436
-38.2699
-37.9126
-37.5712
-37.2451
-36.9334
-36.6348
-36.3478
-36.0709
-35.8028
-35.5419
-35.2871
-35.037
-34.7905
-34.5466
-34.3044
-34.0631
-33.8225
-33.5827
-33.3441
-33.108
-32.8755
-32.6484
-32.4284
-32.2173
-32.0164
-31.8274
-31.651
-31.4883
-31.3397
-31.2054
-31.0854
-30.9796
-30.8874
-30.8085
-30.7424
-30.6888
-30.6475
-30.6181
-30.6007
-30.5952
-30.6015
-30.6196
-30.6494
-30.691
-30.7443
-30.8095
-30.8868
-30.9763
-31.078
-31.1918
-31.3178
-31.4555
-31.6047
-31.7651
-31.9362
-32.1176
-32.3085
-32.5081
-32.715
-32.9277
-33.1445
-33.3631
-48.6235
-48.4147
-48.2008
-47.9802
-47.7507
-47.5092
-47.2523
-46.9767
-46.6796
-46.359
-46.0142
-45.6456
-45.2546
-44.8434
-44.4147
-43.9714
-43.5165
-43.0528
-42.5834
-42.1115
-41.6401
-41.1725
-40.7118
-40.261
-39.8225
-39.3983
-38.99
-38.5985
-38.2244
-37.8678
-37.5282
-37.2049
-36.8966
-36.6018
-36.3189
-36.0462
-35.7819
-35.5248
-35.2734
-35.0266
-34.783
-34.5415
-34.301
-34.0606
-33.8196
-33.5781
-33.3368
-33.0968
-32.8598
-32.6279
-32.4032
-32.1876
-31.983
-31.7909
-31.6122
-31.448
-31.2986
-31.1642
-31.0448
-30.9398
-30.8488
-30.771
-30.7059
-30.653
-30.6121
-30.583
-30.5658
-30.5605
-30.5669
-30.5851
-30.6149
-30.6562
-30.7093
-30.7742
-30.8512
-30.9405
-31.0423
-31.1566
-31.2831
-31.4217
-31.5719
-31.7335
-31.9063
-32.0897
-32.2834
-32.4865
-32.6978
-32.9158
-33.1384
-33.3634
-48.6507
-48.4445
-48.2363
-48.0243
-47.8056
-47.576
-47.3307
-47.0647
-46.7742
-46.4564
-46.1104
-45.7368
-45.3379
-44.9167
-44.4768
-44.0215
-43.5542
-43.0779
-42.5956
-42.1105
-41.626
-41.1458
-40.6736
-40.2126
-39.7658
-39.3353
-38.9226
-38.5287
-38.1541
-37.7987
-37.462
-37.1432
-36.8405
-36.552
-36.2757
-36.0093
-35.7511
-35.4995
-35.2534
-35.0115
-34.7726
-34.5352
-34.2977
-34.0588
-33.8174
-33.5735
-33.3275
-33.0812
-32.8368
-32.597
-32.3647
-32.1422
-31.9317
-31.7348
-31.5526
-31.3861
-31.2357
-31.1014
-30.983
-30.8798
-30.7909
-30.7151
-30.6516
-30.5998
-30.5594
-30.5306
-30.5136
-30.5084
-30.5151
-30.5335
-30.5633
-30.6044
-30.6568
-30.721
-30.7973
-30.8863
-30.9883
-31.1032
-31.2308
-31.3706
-31.5223
-31.6856
-31.8604
-32.0467
-32.2442
-32.4526
-32.6707
-32.8968
-33.1287
-33.3636
-48.6808
-48.4776
-48.2775
-48.0786
-47.8767
-47.666
-47.439
-47.1885
-46.9085
-46.5949
-46.2466
-45.865
-45.4537
-45.0175
-44.5613
-44.0894
-43.6054
-43.1121
-42.6122
-42.109
-41.6062
-41.1081
-40.6194
-40.1443
-39.686
-39.2469
-38.8285
-38.4315
-38.0562
-37.7028
-37.3706
-37.0584
-36.7642
-36.4851
-36.2183
-35.9609
-35.7108
-35.4667
-35.2275
-34.9924
-34.7602
-34.529
-34.2966
-34.0606
-33.8192
-33.5716
-33.3188
-33.0628
-32.8071
-32.5555
-32.3119
-32.0794
-31.8607
-31.6572
-31.4704
-31.3009
-31.1493
-31.0156
-30.8992
-30.7992
-30.7137
-30.6412
-30.5801
-30.5297
-30.4898
-30.461
-30.4439
-30.439
-30.4462
-30.4651
-30.4951
-30.5358
-30.5872
-30.6499
-30.7249
-30.8132
-30.9152
-31.0312
-31.1604
-31.3021
-31.4556
-31.6207
-31.7976
-31.9869
-32.1891
-32.4042
-32.6314
-32.869
-33.1141
-33.3633
-48.7074
-48.5068
-48.3175
-48.1374
-47.9612
-47.7796
-47.5815
-47.3554
-47.0915
-46.7839
-46.4312
-46.0364
-45.6058
-45.1475
-44.6687
-44.1751
-43.6703
-43.156
-42.6341
-42.1072
-41.5797
-41.0573
-40.5462
-40.052
-39.5789
-39.1292
-38.7039
-38.3032
-37.9273
-37.5766
-37.2506
-36.9481
-36.6662
-36.4008
-36.1474
-35.9021
-35.6623
-35.4268
-35.1958
-34.9692
-34.7463
-34.5247
-34.3008
-34.0703
-33.8298
-33.5776
-33.3146
-33.0441
-32.7714
-32.5025
-32.2429
-31.9969
-31.7674
-31.5558
-31.363
-31.1899
-31.0369
-30.9045
-30.7919
-30.6973
-30.6178
-30.5505
-30.493
-30.4441
-30.404
-30.3743
-30.3565
-30.3518
-30.3601
-30.3804
-30.4112
-30.4514
-30.5009
-30.5608
-30.633
-30.7196
-30.8218
-30.9395
-31.0716
-31.2162
-31.3719
-31.5384
-31.7165
-31.908
-32.1148
-32.3379
-32.5769
-32.8298
-33.093
-33.3621
-48.7206
-48.5204
-48.3443
-48.1913
-48.0537
-47.9176
-47.765
-47.577
-47.3379
-47.0383
-46.6767
-46.2595
-45.7985
-45.3073
-44.7978
-44.2776
-43.749
-43.2114
-42.6635
-42.1068
-41.5464
-40.9906
-40.4489
-39.9297
-39.4384
-38.9767
-38.5441
-38.1394
-37.7626
-37.4149
-37.0972
-36.8084
-36.5447
-36.2994
-36.0652
-35.8357
-35.6076
-35.3808
-35.1578
-34.9409
-34.7307
-34.524
-34.3145
-34.0945
-33.8572
-33.5991
-33.3211
-33.0286
-32.7303
-32.436
-32.1542
-31.8907
-31.6482
-31.4272
-31.2274
-31.0495
-30.8949
-30.7647
-30.6584
-30.5732
-30.5042
-30.4456
-30.3933
-30.3454
-30.3031
-30.27
-30.25
-30.2455
-30.2563
-30.2801
-30.3133
-30.3532
-30.3992
-30.4534
-30.5201
-30.6033
-30.7057
-30.8269
-30.9642
-31.1137
-31.2722
-31.4389
-31.6157
-31.8067
-32.0165
-32.2482
-32.502
-32.7753
-33.0631
-33.3591
-48.7053
-48.4995
-48.3385
-48.2235
-48.1444
-48.0798
-47.9997
-47.8726
-47.6719
-47.3823
-47.0027
-46.5462
-46.035
-45.4938
-44.9428
-44.3923
-43.8414
-43.2819
-42.7061
-42.1121
-41.5068
-40.9038
-40.3195
-39.7677
-39.2556
-38.7828
-38.3443
-37.9356
-37.5564
-37.2104
-36.9023
-36.633
-36.3969
-36.1824
-35.9763
-35.7675
-35.5512
-35.3297
-35.111
-34.9032
-34.7101
-34.5274
-34.3435
-34.1437
-33.9148
-33.6493
-33.3484
-33.0215
-32.6836
-32.3515
-32.0391
-31.7543
-31.4982
-31.2677
-31.0601
-30.8755
-30.7175
-30.5902
-30.4945
-30.4258
-30.3751
-30.3316
-30.287
-30.2383
-30.1888
-30.1466
-30.1207
-30.1166
-30.1337
-30.166
-30.2055
-30.2458
-30.2852
-30.328
-30.3828
-30.459
-30.5619
-30.6907
-30.8389
-30.9979
-31.1605
-31.3244
-31.4939
-31.6778
-31.8862
-32.1261
-32.3987
-32.6995
-33.0209
-33.3538
-48.6394
-48.4144
-48.2668
-48.2041
-48.2147
-48.2645
-48.3026
-48.2746
-48.1345
-47.8561
-47.4399
-46.9121
-46.315
-45.6947
-45.0875
-44.5082
-43.9462
-43.3763
-42.7751
-42.1341
-41.4642
-40.7906
-40.1437
-39.5488
-39.0165
-38.5397
-38.1019
-37.6898
-37.3026
-36.9515
-36.6516
-36.4101
-36.218
-36.0537
-35.8913
-35.7103
-35.5023
-35.275
-35.0484
-34.8445
-34.6748
-34.5325
-34.3954
-34.2348
-34.0249
-33.7507
-33.4133
-33.0301
-32.6285
-32.2385
-31.8842
-31.5764
-31.311
-31.0754
-30.8595
-30.6631
-30.4958
-30.37
-30.2914
-30.2525
-30.2353
-30.2189
-30.1864
-30.1321
-30.0636
-29.9994
-29.9598
-29.957
-29.9889
-30.0413
-30.0963
-30.1393
-30.1659
-30.1847
-30.2145
-30.2758
-30.3806
-30.5262
-30.6978
-30.8764
-31.0462
-31.2017
-31.3509
-31.5131
-31.7101
-31.9567
-32.2542
-32.5935
-32.9616
-33.3452
-48.4901
-48.2179
-48.0734
-48.0791
-48.229
-48.4661
-48.7012
-48.8383
-48.7964
-48.5286
-48.0383
-47.3781
-46.6287
-45.8771
-45.1924
-44.5996
-44.0628
-43.5162
-42.9015
-42.198
-41.4273
-40.639
-39.8932
-39.2399
-38.6978
-38.2408
-37.8227
-37.4086
-36.9969
-36.6189
-36.3173
-36.1163
-35.9993
-35.9222
-35.8335
-35.6922
-35.4814
-35.2193
-34.9532
-34.7366
-34.6002
-34.5301
-34.4812
-34.3972
-34.2278
-33.9429
-33.5443
-33.0652
-32.5566
-32.0741
-31.6621
-31.3377
-31.0808
-30.8545
-30.6308
-30.4088
-30.2142
-30.0818
-30.031
-30.0476
-30.0944
-30.1289
-30.1171
-30.0461
-29.9322
-29.8165
-29.7455
-29.7474
-29.814
-29.9127
-30.0039
-30.0561
-30.0576
-30.0254
-30.0006
-30.0297
-30.1403
-30.3237
-30.5464
-30.7672
-30.9523
-31.0877
-31.1891
-31.2979
-31.4622
-31.7135
-32.049
-32.4459
-32.8796
-33.3326
-48.2096
-47.838
-47.664
-47.7467
-48.1179
-48.6708
-49.2412
-49.6599
-49.7841
-49.5216
-48.8817
-47.973
-46.9458
-45.9634
-45.1652
-44.6103
-44.1939
-43.7542
-43.1563
-42.3591
-41.416
-40.4266
-39.5097
-38.7711
-38.2569
-37.886
-37.538
-37.1243
-36.6427
-36.1767
-35.8383
-35.7016
-35.7233
-35.8076
-35.8518
-35.7741
-35.5347
-35.1694
-34.7869
-34.5134
-34.4302
-34.4973
-34.6177
-34.6825
-34.5969
-34.2987
-33.7914
-33.1427
-32.4473
-31.8082
-31.3137
-31.0018
-30.8064
-30.6297
-30.3997
-30.1147
-29.8429
-29.6758
-29.6735
-29.7988
-29.9713
-30.1053
-30.1329
-30.0217
-29.803
-29.5689
-29.4261
-29.4444
-29.5927
-29.7947
-29.9675
-30.0456
-29.9975
-29.8549
-29.709
-29.6659
-29.7948
-30.0643
-30.3976
-30.7091
-30.9294
-31.0223
-31.0162
-31.0023
-31.0889
-31.3489
-31.755
-32.2452
-32.7695
-33.3131
-47.7231
-47.1742
-46.8855
-46.9993
-47.7457
-48.8504
-50
-50.9059
-51.3289
-51.0586
-50.1125
-48.739
-47.1986
-45.785
-44.7881
-44.422
-44.3591
-44.2201
-43.6985
-42.7304
-41.4719
-40.1102
-38.8699
-37.9792
-37.61
-37.4986
-37.3482
-36.9378
-36.2663
-35.5513
-35.069
-35.059
-35.3573
-35.7509
-36.0456
-36.0893
-35.7693
-35.1444
-34.4639
-34.0162
-34.0441
-34.3876
-34.8344
-35.1844
-35.2723
-34.9558
-34.2418
-33.2877
-32.2569
-31.3339
-30.7022
-30.498
-30.5051
-30.4817
-30.2475
-29.8014
-29.3208
-29.0324
-29.1321
-29.4818
-29.9036
-30.2345
-30.3483
-30.1519
-29.6958
-29.1895
-28.8745
-28.9538
-29.2936
-29.7183
-30.0674
-30.2163
-30.0734
-29.6886
-29.2689
-29.0542
-29.2462
-29.713
-30.2795
-30.7822
-31.0897
-31.099
-30.8542
-30.5614
-30.4656
-30.7734
-31.3396
-31.995
-32.6314
-33.2697
-46.8734
-46.1363
-45.5283
-45.3418
-46.8583
-48.9661
-51.1103
-52.8477
-53.8728
-53.5691
-51.9594
-49.7462
-47.2691
-45.0072
-43.5031
-43.7977
-44.6345
-45.2372
-44.8844
-43.5201
-41.6771
-39.6195
-37.7269
-36.4369
-36.5924
-37.1677
-37.533
-37.128
-35.9527
-34.591
-33.6202
-33.9728
-34.8542
-35.8372
-36.6009
-36.9285
-36.4434
-35.1999
-33.8059
-32.8344
-33.2037
-34.1294
-35.1904
-36.064
-36.5301
-36.1853
-35.0383
-33.5429
-31.9114
-30.4401
-29.4753
-29.6897
-30.2475
-30.6373
-30.4005
-29.5375
-28.5219
-27.8299
-28.2303
-29.0607
-29.9665
-30.6763
-31.0099
-30.6556
-29.6607
-28.5342
-27.7547
-28.0878
-28.8719
-29.7503
-30.455
-30.8067
-30.497
-29.572
-28.5333
-27.8562
-28.3017
-29.2173
-30.2529
-31.1358
-31.6788
-31.5412
-30.7608
-29.8362
-29.2607
-29.8252
-30.7951
-31.7719
-32.4901
-33.112
-45.0842
-44.9125
-43.564
-41.2314
-45.1197
-49.0295
-52.8066
-55.8155
-58.3306
-57.9608
-54.6754
-51.1336
-47.0302
-43.1384
-39.6282
-42.3928
-45.2473
-47.6309
-47.5271
-44.9996
-42.1916
-38.8912
-35.7167
-32.8133
-34.9705
-37.1394
-38.8272
-38.4278
-35.9077
-33.0682
-30.2656
-32.1256
-34.2049
-36.2395
-37.7846
-38.9382
-38.2096
-35.4721
-32.5395
-29.7221
-31.562
-33.6766
-35.8163
-37.5305
-38.9556
-38.5701
-36.3364
-33.9941
-31.3351
-28.8168
-26.5502
-28.387
-30.2316
-31.6949
-31.4552
-29.493
-27.257
-25.0544
-26.7091
-28.5307
-30.3113
-31.6596
-32.6617
-32.0816
-29.8147
-27.3793
-25.0323
-26.572
-28.3142
-30.0321
-31.3505
-32.3492
-31.8063
-29.6191
-27.2765
-25.0414
-26.6798
-28.5483
-30.4459
-31.9787
-33.2474
-32.9084
-30.875
-28.6081
-26.4139
-28.2931
-30.2404
-31.9205
-32.4871
-32.375
-39.2534
-45.3833
-43.0175
-28.1636
-43.3508
-49.2842
-55.6099
-59.4948
-66.9432
-66.5516
-57.7612
-53.3303
-46.4872
-40.7203
-26.7181
-40.859
-46.5386
-53.6067
-53.6604
-46.8835
-43.4157
-37.9821
-33.3163
-21.9026
-33.3324
-37.8041
-43.1276
-42.7817
-36.323
-31.4923
-20.1974
-29.9627
-33.6204
-37.3467
-39.5325
-43.6584
-42.869
-36.0257
-31.1073
-19.9035
-29.5249
-33.1878
-37.0548
-39.4137
-43.9884
-43.6165
-37.7909
-34.9016
-30.556
-26.8312
-17.7163
-27.0727
-30.765
-35.2045
-34.9903
-29.8426
-25.9438
-16.7241
-24.9475
-28.0595
-31.2783
-33.141
-36.5917
-35.9361
-30.2109
-26.0966
-16.7129
-24.7642
-27.7909
-30.8889
-32.7058
-36.1111
-35.4829
-29.8895
-25.8643
-16.6483
-24.7263
-27.837
-31.1636
-33.2013
-37.1307
-36.7152
-31.3248
-27.2747
-17.7012
-26.6622
-30.07
-33.6722
-33.4605
-28.6005
-33.5991
-33.853
-34.0991
-34.3341
-34.5549
-34.7593
-34.9455
-35.1121
-35.2584
-35.3839
-35.4884
-35.5718
-35.6343
-35.6758
-35.6966
-33.6029
-33.8604
-34.1099
-34.3477
-34.5709
-34.7771
-34.9646
-35.132
-35.2788
-35.4045
-35.509
-35.5924
-35.6547
-35.6962
-35.7169
-33.6103
-33.8754
-34.1318
-34.3755
-34.6035
-34.8133
-35.0032
-35.1722
-35.3199
-35.4459
-35.5504
-35.6336
-35.6957
-35.7369
-35.7575
-33.6218
-33.8987
-34.1658
-34.4186
-34.6537
-34.8688
-35.0623
-35.2334
-35.3821
-35.5084
-35.6127
-35.6954
-35.757
-35.7979
-35.8182
-33.6377
-33.9315
-34.2136
-34.4789
-34.7236
-34.9454
-35.1432
-35.3167
-35.4662
-35.5924
-35.696
-35.7779
-35.8387
-35.8789
-35.8989
-33.6587
-33.9756
-34.2779
-34.5593
-34.8159
-35.0456
-35.248
-35.4235
-35.5732
-35.6985
-35.8008
-35.8811
-35.9405
-35.9797
-35.9991
-33.686
-34.0339
-34.3624
-34.6641
-34.9347
-35.1728
-35.3791
-35.5555
-35.7042
-35.8273
-35.927
-36.0048
-36.0621
-36.0998
-36.1184
-33.7218
-34.1111
-34.4735
-34.7996
-35.0854
-35.3312
-35.5398
-35.7149
-35.8602
-35.9792
-36.0746
-36.1486
-36.2028
-36.2384
-36.256
-33.7696
-34.2147
-34.6205
-34.9751
-35.2759
-35.5266
-35.7336
-35.9035
-36.0421
-36.1541
-36.2431
-36.3117
-36.3618
-36.3946
-36.4108
-33.8357
-34.3575
-34.8183
-35.2039
-35.5162
-35.7655
-35.9642
-36.123
-36.2501
-36.3516
-36.4316
-36.493
-36.5376
-36.5668
-36.5813
-33.9292
-34.5608
-35.0912
-35.5057
-35.8192
-36.055
-36.2346
-36.3738
-36.4834
-36.57
-36.6381
-36.6904
-36.7285
-36.7534
-36.7658
-34.0624
-34.8649
-35.4792
-35.9078
-36.1994
-36.4006
-36.5453
-36.6543
-36.7392
-36.8066
-36.8601
-36.9016
-36.9321
-36.9522
-36.9622
-34.2526
-35.3565
-36.0525
-36.4459
-36.6684
-36.8022
-36.8917
-36.9586
-37.0123
-37.0568
-37.0936
-37.1232
-37.1456
-37.1606
-37.1681
-34.5679
-36.2556
-36.929
-37.1551
-37.2248
-37.2474
-37.2608
-37.2759
-37.2942
-37.3142
-37.3339
-37.3516
-37.3659
-37.376
-37.3812
-35.5915
-38.1675
-38.2525
-38.0207
-37.8268
-37.7013
-37.6281
-37.5901
-37.5743
-37.5715
-37.5757
-37.5828
-37.5901
-37.5958
-37.5989
-52.4869
-52.5007
-52.5289
-52.5729
-52.6349
-52.7183
-52.8287
-52.9748
-53.1714
-53.4457
-53.8523
-54.519
-55.8044
-58.9414
-69.0233
-52.6059
-52.6226
-52.6566
-52.7096
-52.7845
-52.8855
-53.0194
-53.1972
-53.4371
-53.7719
-54.2647
-55.0495
-56.4376
-59.2105
-65.3512
-52.7137
-52.7326
-52.7713
-52.8314
-52.9161
-53.0299
-53.1798
-53.3765
-53.637
-53.9884
-54.4748
-55.1616
-56.1094
-57.1409
-56.4294
-52.8087
-52.8292
-52.8713
-52.9365
-53.0278
-53.1494
-53.3077
-53.5116
-53.7737
-54.1116
-54.5463
-55.0929
-55.7232
-56.2818
-56.5212
-52.8895
-52.9112
-52.9554
-53.0237
-53.1186
-53.2437
-53.4041
-53.6062
-53.8579
-54.1678
-54.5408
-54.9663
-55.387
-55.6447
-55.3621
-52.9556
-52.9779
-53.0231
-53.0927
-53.1886
-53.3137
-53.4715
-53.6662
-53.9018
-54.1806
-54.4998
-54.8429
-55.1641
-55.3831
-55.4172
-53.0065
-53.0289
-53.0742
-53.1436
-53.2386
-53.3611
-53.5135
-53.6979
-53.9156
-54.1658
-54.4433
-54.7346
-55.0123
-55.2506
-55.4925
-53.042
-53.0642
-53.109
-53.1771
-53.2696
-53.388
-53.5332
-53.7063
-53.9067
-54.1324
-54.3784
-54.6356
-54.8878
-55.116
-55.2415
-53.0624
-53.0841
-53.1277
-53.1938
-53.2831
-53.3962
-53.5337
-53.6955
-53.8803
-54.0854
-54.307
-54.5399
-54.7799
-55.0533
-55.5654
-53.068
-53.089
-53.1311
-53.1948
-53.2802
-53.3878
-53.5175
-53.6686
-53.8395
-54.0274
-54.2289
-54.4394
-54.6488
-54.8255
-54.7368
-53.0593
-53.0795
-53.1199
-53.1808
-53.2622
-53.3642
-53.4864
-53.6278
-53.7867
-53.9603
-54.1456
-54.3396
-54.5404
-54.7825
-55.348
-53.0368
-53.0561
-53.0947
-53.1528
-53.2302
-53.3268
-53.442
-53.5749
-53.7235
-53.8855
-54.0576
-54.2349
-54.4034
-54.5155
-54.2596
-53.0011
-53.0195
-53.0564
-53.1116
-53.1851
-53.2765
-53.3855
-53.5108
-53.651
-53.8039
-53.967
-54.1363
-54.3057
-54.5045
-55.0794
-52.9529
-52.9705
-53.0055
-53.0579
-53.1277
-53.2144
-53.3175
-53.4363
-53.5695
-53.7157
-53.8733
-54.0377
-54.1874
-54.2329
-53.7142
-52.8928
-52.9095
-52.9427
-52.9926
-53.0587
-53.141
-53.2388
-53.3517
-53.4788
-53.6199
-53.7759
-53.9494
-54.1413
-54.3535
-54.5667
-52.8213
-52.8372
-52.8688
-52.9161
-52.9789
-53.0569
-53.1498
-53.257
-53.3782
-53.514
-53.6675
-53.8481
-54.0813
-54.474
-55.5642
-52.7391
-52.7541
-52.7842
-52.829
-52.8887
-52.9627
-53.0508
-53.1525
-53.2675
-53.3962
-53.5415
-53.7104
-53.9103
-54.1106
-53.8258
-52.6467
-52.6609
-52.6894
-52.7321
-52.7886
-52.8589
-52.9424
-53.0387
-53.147
-53.2671
-53.4001
-53.551
-53.7392
-54.0845
-55.3767
-52.5445
-52.5581
-52.5851
-52.6256
-52.6793
-52.746
-52.8253
-52.9164
-53.0183
-53.1294
-53.2473
-53.3659
-53.4587
-53.4015
-52.3838
-52.4332
-52.446
-52.4717
-52.5102
-52.5612
-52.6246
-52.6999
-52.7865
-52.883
-52.9872
-53.0952
-53.1985
-53.2824
-53.386
-54.1196
-52.3131
-52.3253
-52.3497
-52.3862
-52.4347
-52.495
-52.5668
-52.6495
-52.7421
-52.8427
-52.9474
-53.0445
-53.0924
-52.9335
-51.7973
-52.1847
-52.1963
-52.2195
-52.2541
-52.3002
-52.3577
-52.4262
-52.5057
-52.5956
-52.6957
-52.8058
-52.9247
-53.0461
-53.1601
-53.2481
-52.0485
-52.0595
-52.0814
-52.1143
-52.1581
-52.2127
-52.2781
-52.3544
-52.4419
-52.5421
-52.659
-52.803
-53.0048
-53.4051
-54.7575
-51.9049
-51.9152
-51.936
-51.9671
-52.0086
-52.0603
-52.1224
-52.1952
-52.2793
-52.3772
-52.4944
-52.6412
-52.8256
-52.9894
-52.4417
-51.7542
-51.764
-51.7836
-51.813
-51.8521
-51.9009
-51.9594
-52.0279
-52.1071
-52.1992
-52.3102
-52.4532
-52.6606
-53.0684
-54.5048
-51.5968
-51.6061
-51.6246
-51.6523
-51.6891
-51.7349
-51.7896
-51.8531
-51.9257
-52.0084
-52.1045
-52.2204
-52.3565
-52.4335
-51.6237
-51.4332
-51.4419
-51.4594
-51.4854
-51.52
-51.5628
-51.6136
-51.6719
-51.7371
-51.8084
-51.8861
-51.9735
-52.0935
-52.4147
-54.1175
-51.2637
-51.2719
-51.2883
-51.3128
-51.3452
-51.3853
-51.4325
-51.486
-51.5442
-51.6044
-51.6616
-51.704
-51.6907
-51.4368
-49.7631
-51.0886
-51.0963
-51.1118
-51.1349
-51.1654
-51.2029
-51.247
-51.2966
-51.3497
-51.4026
-51.4483
-51.473
-51.4551
-51.4452
-52.2731
-50.9083
-50.9156
-50.9302
-50.9519
-50.9807
-51.0162
-51.0578
-51.1047
-51.1552
-51.206
-51.2505
-51.2714
-51.2138
-50.8721
-49.2411
-50.723
-50.7299
-50.7437
-50.7643
-50.7915
-50.8252
-50.8649
-50.9103
-50.9604
-51.014
-51.0697
-51.1243
-51.1697
-51.1948
-51.1898
-50.533
-50.5396
-50.5526
-50.5721
-50.598
-50.6301
-50.6682
-50.7124
-50.7629
-50.8209
-50.8904
-50.9835
-51.1397
-51.5386
-53.1334
-50.3386
-50.3448
-50.3572
-50.3757
-50.4003
-50.4308
-50.4674
-50.5102
-50.5601
-50.6198
-50.6954
-50.7989
-50.9411
-51.0521
-50.287
-50.14
-50.1459
-50.1577
-50.1752
-50.1985
-50.2275
-50.2621
-50.3028
-50.3505
-50.4079
-50.4816
-50.5872
-50.7642
-51.1744
-52.8039
-49.9375
-49.943
-49.9542
-49.9708
-49.9929
-50.0202
-50.0528
-50.0906
-50.1341
-50.1847
-50.2463
-50.326
-50.4253
-50.4502
-49.4272
-49.7311
-49.7364
-49.747
-49.7628
-49.7837
-49.8094
-49.8398
-49.8744
-49.9127
-49.9541
-49.9989
-50.051
-50.1379
-50.4541
-52.3627
-49.5211
-49.5261
-49.5362
-49.5513
-49.5711
-49.5955
-49.6239
-49.6556
-49.689
-49.7213
-49.7469
-49.752
-49.6911
-49.3522
-47.3826
-49.3076
-49.3125
-49.3222
-49.3366
-49.3555
-49.3788
-49.4057
-49.4354
-49.4659
-49.4933
-49.5095
-49.4986
-49.4374
-49.3831
-50.2738
-49.0909
-49.0955
-49.1048
-49.1187
-49.137
-49.1595
-49.1857
-49.2147
-49.245
-49.2731
-49.2913
-49.2802
-49.179
-48.7578
-46.8899
-48.8709
-48.8754
-48.8844
-48.8979
-48.9157
-48.9377
-48.9636
-48.9931
-49.0256
-49.0598
-49.0939
-49.1242
-49.1426
-49.1374
-49.101
-48.6478
-48.6522
-48.661
-48.6741
-48.6915
-48.7131
-48.7391
-48.7694
-48.8048
-48.8466
-48.8994
-48.9764
-49.1226
-49.5387
-51.2864
-48.4217
-48.426
-48.4345
-48.4473
-48.4643
-48.4857
-48.5115
-48.5423
-48.5794
-48.6259
-48.6885
-48.7805
-48.9151
-49.0154
-48.1467
-48.1927
-48.1968
-48.2051
-48.2176
-48.2342
-48.2551
-48.2804
-48.3107
-48.3475
-48.3939
-48.4574
-48.555
-48.7313
-49.165
-50.9419
-47.9608
-47.9648
-47.9729
-47.985
-48.0012
-48.0214
-48.0458
-48.0747
-48.1088
-48.1501
-48.2028
-48.2748
-48.3687
-48.3819
-47.2443
-47.726
-47.73
-47.7379
-47.7497
-47.7654
-47.7849
-47.8081
-47.835
-47.8651
-47.8984
-47.935
-47.9792
-48.0622
-48.3981
-50.4833
-47.4885
-47.4924
-47.5001
-47.5116
-47.5269
-47.5457
-47.568
-47.5929
-47.6193
-47.6443
-47.6618
-47.6567
-47.5801
-47.1995
-45.0308
-47.2483
-47.2521
-47.2596
-47.2709
-47.2858
-47.3043
-47.3259
-47.3498
-47.3744
-47.3955
-47.4045
-47.3838
-47.309
-47.2425
-48.2122
-47.0055
-47.0092
-47.0166
-47.0276
-47.0423
-47.0606
-47.0821
-47.1063
-47.1317
-47.155
-47.1677
-47.1486
-47.0319
-46.5661
-44.5167
-46.76
-46.7636
-46.7709
-46.7818
-46.7963
-46.8146
-46.8365
-46.8619
-46.8906
-46.9217
-46.9532
-46.9809
-46.9972
-46.9895
-46.9492
-46.512
-46.5155
-46.5226
-46.5334
-46.5478
-46.566
-46.5884
-46.6153
-46.6479
-46.6881
-46.741
-46.8211
-46.979
-47.4353
-49.3545
-46.2614
-46.2649
-46.2718
-46.2823
-46.2965
-46.3146
-46.337
-46.3648
-46.3997
-46.4455
-46.5099
-46.6073
-46.7537
-46.8652
-45.9154
-46.0084
-46.0117
-46.0184
-46.0286
-46.0424
-46.06
-46.082
-46.1094
-46.1441
-46.19
-46.2556
-46.3596
-46.5525
-47.032
-48.9955
-45.753
-45.7562
-45.7626
-45.7723
-45.7855
-45.8023
-45.8232
-45.8489
-45.8805
-45.9207
-45.9743
-46.05
-46.1522
-46.1682
-44.9175
-45.4952
-45.4983
-45.5044
-45.5136
-45.526
-45.5418
-45.5611
-45.5842
-45.6111
-45.642
-45.6774
-45.7221
-45.8117
-46.1838
-48.4948
-45.2353
-45.2381
-45.2438
-45.2525
-45.2641
-45.2787
-45.2964
-45.3168
-45.3389
-45.3601
-45.3736
-45.363
-45.275
-44.8529
-42.4531
-44.9733
-44.9759
-44.9812
-44.9892
-44.9999
-45.0135
-45.0298
-45.0483
-45.0674
-45.0832
-45.0864
-45.0574
-44.9703
-44.8952
-45.9715
-44.7093
-44.7117
-44.7165
-44.7238
-44.7337
-44.7463
-44.7616
-44.7793
-44.7982
-44.8151
-44.8209
-44.7921
-44.6573
-44.1377
-41.8634
-44.4435
-44.4456
-44.4499
-44.4565
-44.4655
-44.4772
-44.4917
-44.5095
-44.5305
-44.5543
-44.5791
-44.6005
-44.6113
-44.5986
-44.5532
-44.1761
-44.1779
-44.1816
-44.1874
-44.1953
-44.2059
-44.2196
-44.2374
-44.2609
-44.2928
-44.3391
-44.4161
-44.5816
-45.0818
-47.2134
-43.9073
-43.9088
-43.9118
-43.9165
-43.9232
-43.9323
-43.9446
-43.9615
-43.9854
-44.021
-44.0772
-44.1703
-44.3193
-44.4321
-43.3673
-43.6373
-43.6384
-43.6406
-43.6441
-43.6493
-43.6564
-43.6664
-43.6807
-43.7019
-43.7347
-43.789
-43.8856
-44.0822
-44.5997
-46.7724
-43.3664
-43.367
-43.3683
-43.3705
-43.3737
-43.3784
-43.3852
-43.3952
-43.4102
-43.4334
-43.4706
-43.5316
-43.6222
-43.6175
-42.2047
-43.0948
-43.0949
-43.0953
-43.0959
-43.097
-43.0988
-43.1017
-43.1062
-43.1129
-43.1222
-43.135
-43.1569
-43.2285
-43.6128
-46.142
-42.823
-42.8226
-42.8218
-42.8208
-42.8196
-42.8183
-42.8171
-42.8159
-42.8138
-42.8083
-42.7923
-42.7478
-42.6174
-42.1183
-39.4367
-42.5512
-42.5503
-42.5484
-42.5456
-42.542
-42.5376
-42.5325
-42.5261
-42.5171
-42.5013
-42.4687
-42.3981
-42.2624
-42.139
-43.2733
-42.2799
-42.2784
-42.2753
-42.2707
-42.2647
-42.2574
-42.2487
-42.2383
-42.2252
-42.2058
-42.1705
-42.0936
-41.899
-41.2858
-38.7695
-42.0095
-42.0073
-42.003
-41.9966
-41.9882
-41.9779
-41.9659
-41.9525
-41.9377
-41.9211
-41.9004
-41.8709
-41.826
-41.7538
-41.6519
-41.7403
-41.7375
-41.732
-41.7237
-41.7128
-41.6994
-41.6841
-41.6676
-41.6516
-41.6389
-41.6355
-41.6588
-41.772
-42.2421
-44.4665
-41.4729
-41.4694
-41.4626
-41.4524
-41.4388
-41.4222
-41.403
-41.3826
-41.3633
-41.3498
-41.3511
-41.3843
-41.4701
-41.5116
-40.2997
-41.2075
-41.2035
-41.1953
-41.1831
-41.1667
-41.1465
-41.1228
-41.0968
-41.071
-41.0501
-41.0437
-41.0732
-41.199
-41.6511
-43.8236
-40.9448
-40.9401
-40.9306
-40.9164
-40.8971
-40.873
-40.8441
-40.811
-40.7754
-40.7399
-40.7101
-40.6954
-40.7011
-40.5956
-39.0225
-40.685
-40.6797
-40.6691
-40.6528
-40.6308
-40.6026
-40.5681
-40.5272
-40.4797
-40.4256
-40.3651
-40.3032
-40.2805
-40.5586
-42.9691
-40.4287
-40.4228
-40.4111
-40.393
-40.3683
-40.3364
-40.2967
-40.248
-40.1886
-40.1153
-40.0199
-39.8839
-39.6509
-39.0402
-36.257
-40.1761
-40.1698
-40.1571
-40.1376
-40.1106
-40.0756
-40.0313
-39.9762
-39.9075
-39.8198
-39.7018
-39.5318
-39.2837
-39.03
-39.9519
-39.9276
-39.921
-39.9076
-39.8869
-39.8584
-39.8209
-39.7734
-39.714
-39.6397
-39.5451
-39.4186
-39.2339
-38.9203
-38.2029
-35.7196
-39.6835
-39.6767
-39.6628
-39.6415
-39.6119
-39.5731
-39.5237
-39.4622
-39.3861
-39.2921
-39.1746
-39.0256
-38.8374
-38.6014
-38.3374
-39.4437
-39.4369
-39.423
-39.4015
-39.3716
-39.3324
-39.2825
-39.2205
-39.145
-39.0549
-38.9512
-38.8444
-38.7878
-39.0187
-40.7758
-39.2084
-39.2017
-39.1881
-39.1669
-39.1375
-39.0989
-39.0496
-38.9884
-38.9142
-38.8269
-38.7287
-38.6283
-38.5386
-38.3754
-37.1269
-38.9775
-38.9711
-38.958
-38.9378
-38.9096
-38.8725
-38.8249
-38.7654
-38.6926
-38.6058
-38.5066
-38.4047
-38.3403
-38.4854
-39.9262
-38.7507
-38.7448
-38.7327
-38.7139
-38.6877
-38.653
-38.6084
-38.5518
-38.4809
-38.393
-38.2851
-38.1551
-37.9964
-37.695
-36.2276
-38.5278
-38.5224
-38.5116
-38.4948
-38.4714
-38.4404
-38.4001
-38.3482
-38.2812
-38.1936
-38.0775
-37.9254
-37.7517
-37.7137
-39.0165
-38.3082
-38.3036
-38.2943
-38.2799
-38.2601
-38.2339
-38.1998
-38.1553
-38.0959
-38.0135
-37.8936
-37.7107
-37.4128
-36.8006
-34.7234
-38.0916
-38.0878
-38.0801
-38.0685
-38.0528
-38.0326
-38.0067
-37.9729
-37.9267
-37.8589
-37.752
-37.5759
-37.2921
-36.9043
-36.9826
-37.8773
-37.8743
-37.8683
-37.8596
-37.8485
-37.835
-37.819
-37.7993
-37.7727
-37.7311
-37.657
-37.5158
-37.2436
-36.6835
-35.2408
-37.6648
-37.6625
-37.6581
-37.6521
-37.6454
-37.6389
-37.6337
-37.6306
-37.6292
-37.6255
-37.6071
-37.5466
-37.3951
-37.075
-36.561
-37.4535
-37.4518
-37.4486
-37.4449
-37.4419
-37.4417
-37.4469
-37.4609
-37.4875
-37.5296
-37.5851
-37.6407
-37.6637
-37.6006
-37.5286
-37.2432
-37.2417
-37.2391
-37.2367
-37.2362
-37.2405
-37.2538
-37.2825
-37.3352
-37.4238
-37.5616
-37.7573
-37.992
-38.1316
-37.7833
-37.0336
-37.032
-37.0293
-37.0268
-37.0268
-37.0328
-37.0501
-37.0874
-37.1581
-37.2834
-37.4964
-37.8468
-38.3864
-39.0007
-38.4676
-36.8249
-36.8227
-36.8189
-36.8149
-36.813
-36.8169
-36.8325
-36.8694
-36.9433
-37.0815
-37.3344
-37.805
-38.7291
-40.6661
-44.9382
-36.6173
-36.6142
-36.6084
-36.6012
-36.5948
-36.5926
-36.6
-36.6256
-36.6839
-36.7995
-37.0196
-37.4482
-38.3684
-40.709
-48.2279
-49.9598
-42.2029
-39.7559
-38.7795
-38.3147
-38.0685
-37.9325
-37.8578
-37.8188
-37.8007
-37.7944
-37.7942
-37.7966
-37.7993
-37.8009
-46.9503
-42.1833
-40.1016
-39.114
-38.6051
-38.3254
-38.1666
-38.0764
-38.0265
-38.0006
-37.9886
-37.9843
-37.9838
-37.9847
-37.9854
-39.4565
-40.298
-39.6879
-39.116
-38.735
-38.4976
-38.3531
-38.2671
-38.2176
-38.1906
-38.1771
-38.1714
-38.1697
-38.1698
-38.1701
-39.1818
-39.4199
-39.248
-38.9852
-38.7639
-38.6049
-38.4991
-38.4325
-38.3929
-38.3709
-38.3599
-38.3553
-38.3541
-38.3543
-38.3547
-38.7459
-38.8259
-38.8714
-38.8255
-38.7482
-38.6746
-38.6178
-38.5794
-38.556
-38.5434
-38.538
-38.5366
-38.5372
-38.5384
-38.5392
-37.6612
-38.255
-38.5587
-38.6874
-38.7286
-38.732
-38.7239
-38.7159
-38.7115
-38.7108
-38.7128
-38.7161
-38.7196
-38.7224
-38.7239
-36.7658
-37.885
-38.3676
-38.6099
-38.7341
-38.7969
-38.83
-38.8499
-38.8643
-38.8762
-38.8865
-38.8952
-38.9021
-38.9069
-38.9094
-37.8413
-37.9565
-38.3435
-38.6142
-38.781
-38.8819
-38.9453
-38.9879
-39.0188
-39.0424
-39.0609
-39.0752
-39.0858
-39.0928
-39.0963
-36.097
-37.8385
-38.4004