/*--------------------------------*- C++ -*----------------------------------*\
| =========                 |                                                 |
| \\      /  F ield         | OpenFOAM: The Open Source CFD Toolbox           |
|  \\    /   O peration     | Version:  5.x                                   |
|   \\  /    A nd           | Web:      www.OpenFOAM.org                      |
|    \\/     M anipulation  |                                                 |
\*---------------------------------------------------------------------------*/
FoamFile
{
    version     2.0;
    format      ascii;
    class       volScalarField;
    location    "4.5";
    object      gradTy;
}
// * * * * * * * * * * * * * * * * * * * * * * * * * * * * * * * * * * * * * //

dimensions      [0 -1 0 1 0 0 0];

internalField   nonuniform List<scalar> 
6300
(
32274.6
32223.9
32173.2
32122.6
32072
32021.5
31971.1
31920.9
31870.7
31820.8
31771
31721.4
31672
31622.8
31573.9
-0.0140322
-0.0421592
-0.0704615
-0.0990176
-0.127837
-0.156836
-0.185818
-0.214464
-0.242333
-0.268899
-0.293612
-0.316005
-0.335832
-0.35322
-0.368797
-0.0233089
-0.0700577
-0.117153
-0.164744
-0.212874
-0.261426
-0.310089
-0.358323
-0.405363
-0.450258
-0.491975
-0.529579
-0.562486
-0.59077
-0.615441
-0.0324704
-0.0976152
-0.163337
-0.229913
-0.297464
-0.365881
-0.43476
-0.503345
-0.570503
-0.634756
-0.694408
-0.747801
-0.793716
-0.831892
-0.863563
-0.0414337
-0.124609
-0.208683
-0.294127
-0.381211
-0.469899
-0.559753
-0.649826
-0.738584
-0.823896
-0.903145
-0.973549
-1.03274
-1.07959
-1.11523
-0.0500745
-0.150684
-0.252637
-0.356682
-0.46333
-0.572727
-0.684503
-0.797596
-0.910085
-1.01907
-1.1207
-1.21048
-1.28405
-1.33845
-1.37393
-0.0582539
-0.175417
-0.294501
-0.416637
-0.542705
-0.673184
-0.807942
-0.945978
-1.0851
-1.22161
-1.35011
-1.46364
-1.55452
-1.61623
-1.64646
-0.0657821
-0.198236
-0.333323
-0.472671
-0.617684
-0.769377
-0.928123
-1.09329
-1.26274
-1.43217
-1.59449
-1.73944
-1.85413
-1.92545
-1.94507
-0.0724226
-0.218427
-0.36789
-0.523048
-0.685994
-0.858527
-1.04189
-1.23634
-1.4404
-1.64984
-1.85623
-2.04546
-2.19705
-2.28624
-2.29165
-0.0779047
-0.23516
-0.396765
-0.565643
-0.744723
-0.936852
-1.14459
-1.36977
-1.61268
-1.87053
-2.13507
-2.38903
-2.60224
-2.73065
-2.72541
-0.081941
-0.247546
-0.418368
-0.598039
-0.790407
-0.999572
-1.22984
-1.48548
-1.76998
-2.08449
-2.42443
-2.77321
-3.09208
-3.30853
-3.3175
-0.0842542
-0.254716
-0.431125
-0.617744
-0.819297
-1.04119
-1.28973
-1.5723
-1.89724
-2.27294
-2.70483
-3.18717
-3.6842
-4.09375
-4.2032
-0.0846143
-0.25594
-0.433676
-0.622518
-0.827851
-1.05616
-1.31559
-1.61673
-1.97368
-2.40512
-2.93464
-3.58631
-4.36371
-5.17908
-5.66564
-0.0828783
-0.250754
-0.425124
-0.610807
-0.813436
-1.04001
-1.29972
-1.60533
-1.97554
-2.43912
-3.0422
-3.85963
-5.00531
-6.59342
-8.36681
-0.0790238
-0.239075
-0.405266
-0.582155
-0.775085
-0.990726
-1.23794
-1.5293
-1.88395
-2.33352
-2.9353
-3.80472
-5.20471
-7.8228
-13.7424
31529.2
31488.8
31448.6
31408.5
31368.7
31329
31289.6
31250.4
31211.4
31172.7
31134.3
31096.2
31058.3
31020.8
30983.7
30946.9
30910.5
30874.4
30838.8
30803.5
30768.6
30734
30699.9
30666.1
30632.7
30599.7
30567
30534.6
30502.6
30470.8
30439.4
30408.2
30377.3
30346.6
30316.2
30286
30256.1
30226.3
30196.8
30167.5
30138.4
30109.5
30080.9
30052.4
30024.1
29996
29968.1
29940.4
29912.9
29885.6
29858.5
29831.6
29804.8
29778.2
29751.7
29725.4
29699.2
29673.2
29647.2
29621.3
29595.6
29569.8
29544.2
29518.6
29493
29467.5
29442
29416.5
29391
29365.5
29339.9
29314.4
29288.8
29263.1
29237.4
29211.6
29185.8
29159.8
29133.8
29107.6
29081.3
29054.9
29028.4
29001.7
28974.8
28947.8
28920.6
28893.3
28865.8
28838
-0.382491
-0.395564
-0.410349
-0.42791
-0.449135
-0.474573
-0.504312
-0.537934
-0.57455
-0.612912
-0.651589
-0.689144
-0.724303
-0.756048
-0.783649
-0.806627
-0.824681
-0.837619
-0.845307
-0.847671
-0.844726
-0.836623
-0.823676
-0.806373
-0.785346
-0.761323
-0.735083
-0.707411
-0.679083
-0.650842
-0.623389
-0.597351
-0.573243
-0.551433
-0.532129
-0.515387
-0.50115
-0.489295
-0.47968
-0.472156
-0.466548
-0.462613
-0.459991
-0.458166
-0.456481
-0.454175
-0.450477
-0.444692
-0.436294
-0.424977
-0.410671
-0.393516
-0.37381
-0.351957
-0.328416
-0.303673
-0.27821
-0.252485
-0.226903
-0.201776
-0.177295
-0.153525
-0.13041
-0.107819
-0.0855957
-0.0636036
-0.0417555
-0.0200116
0.00164347
0.0232313
0.0448019
0.0664344
0.0882155
0.110205
0.132403
0.154738
0.177076
0.19925
0.221096
0.242473
0.263266
0.283352
0.302562
0.320636
0.337209
0.351811
0.363919
0.373004
0.378603
0.380369
-0.636628
-0.656728
-0.6797
-0.707585
-0.742113
-0.784385
-0.83463
-0.892096
-0.955117
-1.02135
-1.08811
-1.15275
-1.21298
-1.26708
-1.31386
-1.35266
-1.38307
-1.40486
-1.4178
-1.42173
-1.41659
-1.4026
-1.38025
-1.35042
-1.31422
-1.27295
-1.22797
-1.18063
-1.13223
-1.08405
-1.03731
-0.993098
-0.952336
-0.915663
-0.883405
-0.855597
-0.832066
-0.812542
-0.796764
-0.78451
-0.775559
-0.769587
-0.76604
-0.764055
-0.762455
-0.759846
-0.754787
-0.745984
-0.732474
-0.713727
-0.689663
-0.660594
-0.627106
-0.589947
-0.549937
-0.507922
-0.464747
-0.421226
-0.378084
-0.335889
-0.294981
-0.25544
-0.217113
-0.179701
-0.142867
-0.106344
-0.0699848
-0.0337601
0.00230699
0.0382184
0.0740562
0.109986
0.146207
0.182868
0.219993
0.257445
0.294953
0.332184
0.368829
0.404661
0.439528
0.473295
0.505744
0.536477
0.564864
0.590064
0.611101
0.626994
0.636884
0.640148
-0.889436
-0.913633
-0.941852
-0.977566
-1.02381
-1.08258
-1.15441
-1.23812
-1.33092
-1.42889
-1.52753
-1.62255
-1.71038
-1.78849
-1.85544
-1.91061
-1.95375
-1.9847
-2.00314
-2.00869
-2.00108
-1.98043
-1.94746
-1.90347
-1.85024
-1.78977
-1.72411
-1.6552
-1.58491
-1.51505
-1.44742
-1.38372
-1.32538
-1.27338
-1.22811
-1.18949
-1.15705
-1.13024
-1.10862
-1.09195
-1.08013
-1.07292
-1.06969
-1.06924
-1.06973
-1.0689
-1.06434
-1.05391
-1.03605
-1.00999
-0.975722
-0.933896
-0.885552
-0.831906
-0.77421
-0.713709
-0.651653
-0.589288
-0.527771
-0.468023
-0.410574
-0.355481
-0.302376
-0.250628
-0.199572
-0.148728
-0.0979034
-0.047166
0.0033091
0.0534244
0.103289
0.153228
0.203673
0.254971
0.307217
0.360174
0.413328
0.466058
0.517831
0.568331
0.617463
0.665223
0.711481
0.755774
0.797188
0.834384
0.865765
0.889704
0.904787
0.909996
-1.1414
-1.16488
-1.19335
-1.23254
-1.28762
-1.36216
-1.45729
-1.57124
-1.69952
-1.83566
-1.97242
-2.10297
-2.22201
-2.32624
-2.41429
-2.48616
-2.5423
-2.58286
-2.60738
-2.61494
-2.60468
-2.57639
-2.53092
-2.47023
-2.39707
-2.31447
-2.22533
-2.13219
-2.03738
-1.94326
-1.85231
-1.76708
-1.68977
-1.62183
-1.56373
-1.51496
-1.47441
-1.44095
-1.41382
-1.39291
-1.37855
-1.371
-1.36985
-1.37356
-1.37943
-1.38383
-1.38286
-1.37304
-1.35196
-1.31857
-1.27318
-1.21709
-1.15214
-1.0802
-1.00302
-0.922231
-0.839496
-0.756616
-0.675395
-0.597325
-0.523242
-0.453123
-0.386143
-0.321005
-0.256413
-0.191515
-0.126119
-0.0606067
0.0044269
0.0685994
0.132032
0.195372
0.259549
0.325359
0.39308
0.462291
0.531997
0.601007
0.668373
0.733687
0.797102
0.859052
0.919798
0.97898
1.03536
1.08686
1.13093
1.16497
1.18674
1.19468
-1.39375
-1.40887
-1.42936
-1.46457
-1.52332
-1.61202
-1.733
-1.88367
-2.05671
-2.24151
-2.42617
-2.59991
-2.75492
-2.88722
-2.9964
-3.08433
-3.15322
-3.20407
-3.236
-3.24682
-3.23421
-3.19704
-3.13625
-3.05491
-2.95745
-2.84858
-2.73227
-2.61155
-2.48886
-2.36687
-2.24896
-2.13902
-2.04064
-1.95613
-1.88591
-1.82856
-1.78159
-1.74254
-1.71007
-1.68445
-1.66719
-1.6599
-1.66301
-1.67481
-1.69126
-1.70651
-1.71413
-1.70843
-1.68563
-1.64447
-1.58606
-1.51309
-1.42881
-1.33608
-1.23708
-1.13358
-1.02758
-0.921594
-0.818514
-0.720918
-0.630238
-0.546278
-0.467291
-0.390629
-0.313729
-0.235048
-0.154533
-0.0733864
0.00675825
0.0848159
0.160884
0.23629
0.313053
0.392976
0.476778
0.563677
0.651655
0.73831
0.821855
0.901769
0.978841
1.0546
1.13036
1.20622
1.28054
1.35004
1.41055
1.45789
1.48861
1.50037
-1.65022
-1.64506
-1.64409
-1.66259
-1.71577
-1.81528
-1.96587
-2.16375
-2.39688
-2.64742
-2.89552
-3.12372
-3.32041
-3.48134
-3.609
-3.70979
-3.79001
-3.85236
-3.8949
-3.91232
-3.89895
-3.85155
-3.77106
-3.66265
-3.53412
-3.39323
-3.24544
-3.0936
-2.93917
-2.78447
-2.63399
-2.49416
-2.37138
-2.2697
-2.18939
-2.12707
-2.0772
-2.03448
-1.99629
-1.9638
-1.94129
-1.93365
-1.94348
-1.96921
-2.00463
-2.04003
-2.06443
-2.06826
-2.04557
-1.99506
-1.91972
-1.82522
-1.7175
-1.60084
-1.47743
-1.34839
-1.21549
-1.08222
-0.953582
-0.834397
-0.727402
-0.632116
-0.544934
-0.460445
-0.373456
-0.281072
-0.183707
-0.0845771
0.0122406
0.104044
0.190833
0.275402
0.362146
0.455145
0.556153
0.663643
0.773347
0.880218
0.980696
1.07407
1.16259
1.25028
1.34089
1.43578
1.53275
1.62627
1.70923
1.77484
1.81786
1.83498
-1.91896
-1.87504
-1.83062
-1.81046
-1.84124
-1.94466
-2.13031
-2.39272
-2.71164
-3.05651
-3.39313
-3.69254
-3.93696
-4.12297
-4.25983
-4.36441
-4.45205
-4.52873
-4.58947
-4.62166
-4.6122
-4.55317
-4.44552
-4.29881
-4.12804
-3.94722
-3.76387
-3.57876
-3.38927
-3.19537
-3.00305
-2.82409
-2.67111
-2.55183
-2.46631
-2.40697
-2.36183
-2.31923
-2.27362
-2.22809
-2.19328
-2.18153
-2.20036
-2.24895
-2.31731
-2.38869
-2.44361
-2.46557
-2.44486
-2.38069
-2.28025
-2.15565
-2.01834
-1.8746
-1.72519
-1.56805
-1.40321
-1.2355
-1.07433
-0.929632
-0.807016
-0.705604
-0.618024
-0.533194
-0.440294
-0.333623
-0.214788
-0.0918131
0.0255575
0.131095
0.224573
0.311965
0.402808
0.506342
0.626736
0.760949
0.899631
1.03183
1.15025
1.25383
1.34802
1.44218
1.54567
1.66278
1.79031
1.9181
2.03324
2.12466
2.18473
2.20924
-2.21651
-2.10546
-1.98189
-1.88457
-1.86161
-1.95508
-2.18357
-2.53967
-2.9883
-3.47675
-3.94355
-4.33975
-4.63682
-4.83451
-4.95625
-5.04248
-5.12892
-5.22703
-5.32415
-5.38993
-5.39575
-5.32369
-5.17509
-4.96843
-4.73525
-4.50362
-4.28359
-4.06896
-3.84441
-3.60269
-3.35155
-3.11523
-2.92094
-2.78392
-2.7041
-2.66498
-2.64135
-2.60686
-2.54932
-2.47543
-2.41052
-2.38385
-2.41282
-2.49865
-2.62407
-2.75949
-2.86868
-2.92273
-2.90513
-2.81695
-2.674
-2.50278
-2.32685
-2.15497
-1.98248
-1.79722
-1.59351
-1.37779
-1.16983
-0.991545
-0.854588
-0.757681
-0.68567
-0.6161
-0.525515
-0.402262
-0.250426
-0.0896036
0.0572624
0.176835
0.268373
0.344833
0.426444
0.534482
0.678616
0.852978
1.03637
1.20437
1.34224
1.44813
1.53446
1.62163
1.73177
1.87565
2.04836
2.22895
2.39219
2.52034
2.60346
2.63804
-2.57529
-2.35359
-2.09502
-1.85124
-1.71388
-1.77056
-2.05245
-2.55269
-3.20688
-3.92739
-4.59484
-5.12886
-5.47891
-5.6545
-5.70285
-5.71925
-5.78793
-5.92568
-6.1028
-6.24338
-6.29027
-6.20324
-5.98699
-5.67495
-5.3389
-5.04194
-4.79414
-4.57201
-4.32281
-4.02211
-3.67721
-3.34431
-3.08676
-2.93204
-2.88169
-2.89905
-2.93486
-2.92602
-2.84688
-2.70815
-2.57098
-2.50433
-2.54163
-2.68957
-2.91466
-3.16624
-3.37137
-3.48126
-3.46523
-3.33027
-3.10662
-2.85485
-2.62772
-2.43437
-2.25635
-2.05116
-1.7993
-1.50709
-1.2208
-0.992172
-0.842728
-0.772163
-0.748074
-0.727552
-0.656077
-0.51038
-0.297343
-0.0656641
0.129873
0.26451
0.335422
0.371797
0.413513
0.512109
0.688401
0.933402
1.19666
1.42162
1.58153
1.67185
1.72091
1.76917
1.87043
2.04812
2.29611
2.56577
2.8026
2.98174
3.0929
3.14183
-3.05656
-2.65465
-2.18679
-1.66473
-1.28693
-1.26194
-1.60714
-2.34423
-3.33014
-4.45466
-5.43848
-6.18315
-6.57256
-6.65803
-6.49581
-6.3211
-6.34786
-6.56802
-6.93445
-7.23218
-7.37805
-7.26935
-6.93734
-6.41656
-5.88676
-5.51004
-5.26823
-5.11457
-4.87591
-4.50573
-3.98619
-3.4655
-3.10513
-2.93048
-2.9624
-3.10717
-3.29334
-3.34708
-3.23095
-2.93932
-2.63059
-2.47587
-2.51182
-2.77014
-3.16785
-3.6406
-4.01197
-4.22186
-4.19734
-3.97207
-3.5805
-3.1722
-2.88071
-2.69244
-2.57008
-2.37304
-2.06394
-1.62859
-1.18947
-0.87947
-0.717985
-0.720422
-0.806023
-0.913046
-0.894164
-0.716098
-0.3717
0.0097364
0.289613
0.443389
0.451646
0.390531
0.31816
0.377369
0.598786
0.987116
1.4117
1.73214
1.92065
1.95457
1.90815
1.84004
1.89869
2.11907
2.51239
2.94956
3.29583
3.54074
3.67161
3.74761
-3.77505
-3.05084
-2.35692
-1.27107
-0.352812
-0.221423
-0.59889
-1.77896
-3.25537
-5.18623
-6.62829
-7.75094
-8.10593
-8.02041
-7.30905
-6.63527
-6.63182
-7.00238
-7.86773
-8.44247
-8.83529
-8.66003
-8.16266
-7.17439
-6.21754
-5.78729
-5.61891
-5.7831
-5.62205
-5.20812
-4.30061
-3.3597
-2.86002
-2.63548
-2.88471
-3.2598
-3.84669
-4.01704
-3.87208
-3.1995
-2.47292
-2.17735
-2.16637
-2.65458
-3.31764
-4.26558
-4.88983
-5.3047
-5.2233
-4.85809
-4.08323
-3.32612
-2.98985
-2.86034
-2.99612
-2.86102
-2.5151
-1.76019
-0.976866
-0.557512
-0.361758
-0.553452
-0.837603
-1.28427
-1.36583
-1.16563
-0.503596
0.227258
0.626912
0.827876
0.663886
0.421681
0.0296223
0.00545212
0.265306
0.985236
1.77343
2.22949
2.47932
2.35002
2.12374
1.72557
1.69136
1.93836
2.66305
3.46186
3.93275
4.26175
4.3272
4.49458
-4.97647
-3.40387
-3.09172
-0.635914
1.71486
1.55237
1.56561
-0.786512
-2.52574
-6.62123
-8.27761
-10.4237
-10.2731
-10.2834
-8.06754
-5.98346
-6.37653
-6.72358
-9.21885
-9.91405
-11.1099
-10.5138
-10.0941
-7.88613
-5.78912
-5.68657
-5.48981
-6.91914
-6.73144
-6.62034
-4.66218
-2.61752
-2.21767
-1.65725
-2.62479
-3.10646
-4.99885
-5.14003
-5.27193
-3.53633
-1.69349
-1.4679
-1.10098
-2.28614
-3.05608
-5.35557
-6.06802
-7.10104
-6.65677
-6.33286
-4.55923
-2.87287
-2.80008
-2.64502
-3.81102
-3.65141
-3.55401
-1.93153
-0.239007
0.0875715
0.553558
-0.252171
-0.633977
-2.18005
-2.24204
-2.27906
-0.733497
0.922763
1.25137
1.73898
0.98985
0.669727
-0.78758
-0.774381
-0.729668
0.886013
2.61434
3.02468
3.58487
2.88603
2.58779
1.08791
1.07995
1.0706
2.70771
4.44702
4.77465
5.363
4.83673
5.48324
-7.54079
-1.94168
-6.91329
0.150613
7.40189
3.07354
7.13675
-0.676169
1.59744
-11.5681
-9.2213
-16.403
-12.2081
-15.7514
-8.63567
-1.76392
-6.18681
-3.35066
-13.1614
-10.664
-15.9642
-12.1128
-14.5998
-8.4373
-2.48783
-5.72065
-3.01821
-10.3828
-7.7296
-10.6915
-5.14734
0.49418
-1.80558
1.5223
-3.06352
-0.92066
-8.67174
-6.27534
-9.35996
-4.02651
1.41585
-0.96084
2.20054
-2.51452
-0.590855
-8.72974
-6.78347
-11.0236
-7.91574
-9.89406
-4.90838
-0.0949252
-2.72757
-0.526228
-6.53359
-4.35104
-6.78785
-2.20257
2.46699
0.533073
3.30129
-0.56016
1.24735
-5.21172
-3.15305
-5.67024
-1.12167
3.5312
1.64798
4.43204
0.699154
2.55639
-3.72119
-1.59854
-3.98574
0.62558
5.35414
3.60505
6.50433
2.84611
4.78311
-1.69716
0.471378
-2.16715
2.606
7.46576
5.24188
8.07
3.65825
7.26137
-17.0856
14.7427
-28.0657
0.667354
29.7634
-7.48941
29.8093
-15.0908
27.9528
-38.8534
3.55572
-38.7655
-3.00036
-36.5693
-8.85314
18.7192
-16.4509
18.2331
-34.8285
-0.186252
-33.9979
-4.58548
-31.5617
-8.68282
14.0349
-14.3026
13.9489
-28.2735
-0.643123
-27.0125
-5.77397
15.0401
-9.49861
16.0963
-13.1929
15.5111
-26.9584
0.48062
-25.5715
-4.67502
15.7831
-8.43015
16.8426
-12.3042
16.3629
-26.6281
1.4078
-25.5286
-1.85231
-23.485
-5.01119
13.4038
-9.61765
13.4114
-21.0513
1.59958
-20.1351
-2.59657
14.6803
-5.79408
15.5941
-9.03302
15.031
-20.5104
2.52368
-19.2375
-1.66148
15.5502
-4.67765
16.5081
-7.64262
16.1558
-18.7523
4.07023
-17.3208
0.195224
17.4206
-2.50927
18.8655
-5.25189
19.0983
-16.9374
6.78409
-16.0784
2.37879
20.6842
-1.56644
21.2016
-9.06237
14.0014
28807.4
28773.6
28739.6
28705.4
28671
28636.3
28601.4
28566.4
28531.2
28495.8
28460.4
28424.8
28389.2
28353.6
28317.9
0.377884
0.369401
0.355486
0.336765
0.314049
0.288217
0.26012
0.230512
0.200012
0.169083
0.138045
0.10709
0.0763037
0.0456946
0.0152153
0.636071
0.621587
0.597725
0.565648
0.526827
0.482837
0.435177
0.38515
0.333803
0.281905
0.229969
0.178287
0.126976
0.0760182
0.0253094
0.904299
0.883161
0.848189
0.801278
0.744776
0.681128
0.612603
0.541115
0.468153
0.394774
0.321646
0.24912
0.177297
0.106096
0.0353159
1.18735
1.15848
1.11051
1.04642
0.969798
0.884234
0.79294
0.698515
0.602893
0.507373
0.412714
0.319248
0.226997
0.135756
0.0451754
1.49128
1.45289
1.38893
1.30408
1.20373
1.09303
0.97637
0.857086
0.737512
0.619095
0.502572
0.388154
0.275682
0.164753
0.0548058
1.82375
1.7729
1.68828
1.57727
1.44798
1.30775
1.16237
1.01591
0.870949
0.728905
0.590312
0.455102
0.32282
0.192767
0.0640993
2.19502
2.12688
2.01416
1.86883
1.70321
1.52761
1.34939
1.17316
1.00143
0.835241
0.674651
0.519111
0.367722
0.21939
0.072922
2.61937
2.52581
2.37298
2.18097
1.96867
1.75021
1.53441
1.32585
1.12632
0.935939
0.753913
0.578954
0.409558
0.244145
0.0811177
3.11747
2.98452
2.77142
2.51385
2.24074
1.9705
1.71235
1.46953
1.24201
1.02824
0.826076
0.63321
0.447398
0.266507
0.0885168
3.72173
3.5232
3.21424
2.8623
2.51032
2.17912
1.87523
1.598
1.34396
1.10892
0.888907
0.680389
0.480299
0.285956
0.094954
4.49475
4.1711
3.69905
3.20977
2.75888
2.3606
2.01167
1.70343
1.42694
1.17457
0.940223
0.719117
0.507437
0.302057
0.100293
5.5922
4.96791
4.20158
3.51811
2.95437
2.49272
2.10752
1.7772
1.48584
1.22219
0.978289
0.748404
0.528265
0.314537
0.104452
7.43352
5.90683
4.62248
3.70685
3.04765
2.54841
2.14859
1.81207
1.51707
1.25007
1.00232
0.767928
0.542673
0.323369
0.107427
10.9886
6.6026
4.6744
3.63906
2.98096
2.5048
2.12649
1.80549
1.52032
1.25867
1.01299
0.778297
0.551119
0.328832
0.109313
-0.0738019
-0.223193
-0.378045
-0.542364
-0.72077
-0.918895
-1.14401
-1.40607
-1.71971
-2.10825
-2.6127
-3.31447
-4.40063
-6.3763
-10.8344
-0.067684
-0.204561
-0.346027
-0.495366
-0.656225
-0.832796
-1.03005
-1.25403
-1.51206
-1.81266
-2.16337
-2.55972
-2.93447
-2.92564
-0.77389
-0.0605199
-0.182744
-0.308545
-0.440378
-0.580778
-0.732334
-0.897532
-1.0783
-1.27478
-1.48222
-1.68243
-1.82013
-1.73451
-0.962781
1.77992
-0.0525328
-0.158445
-0.266879
-0.379446
-0.497593
-0.622403
-0.754182
-0.891586
-1.0298
-1.15673
-1.24503
-1.2359
-1.01061
-0.369028
0.784887
-0.0439571
-0.132393
-0.222346
-0.314646
-0.409788
-0.507638
-0.606915
-0.704256
-0.792537
-0.857958
-0.875367
-0.802149
-0.575301
-0.131268
0.503087
-0.0350196
-0.10529
-0.176185
-0.247877
-0.320111
-0.391892
-0.460992
-0.523181
-0.571046
-0.592385
-0.568643
-0.475386
-0.29058
-0.0257312
0.182301
-0.0259221
-0.0777537
-0.129472
-0.180735
-0.230756
-0.278016
-0.319875
-0.352038
-0.367902
-0.357979
-0.310119
-0.212332
-0.0613495
0.119272
0.259187
-0.0168327
-0.0502943
-0.0830713
-0.114453
-0.143314
-0.167891
-0.185495
-0.192212
-0.182624
-0.149812
-0.0861792
0.0137591
0.147352
0.292579
0.384045
-0.00788345
-0.0233065
-0.0376339
-0.049913
-0.0588414
-0.0625993
-0.0586734
-0.0437083
-0.0134566
0.0370216
0.112617
0.216507
0.348019
0.503256
0.696646
0.000829189
0.00292573
0.00638895
0.0123098
0.0220533
0.0373702
0.0604936
0.094184
0.141675
0.206455
0.291812
0.400111
0.532253
0.68748
0.857249
0.00924018
0.0282154
0.0487147
0.0718901
0.0990921
0.131936
0.172341
0.222505
0.28481
0.361628
0.455116
0.567198
0.700497
0.86165
1.07251
0.0173105
0.0524539
0.0891933
0.128688
0.172229
0.221273
0.277432
0.342413
0.41788
0.50525
0.605543
0.719595
0.849435
1.00135
1.18307
0.0250209
0.0755923
0.127771
0.18269
0.241564
0.305691
0.376421
0.455064
0.542704
0.639921
0.74645
0.861076
0.983081
1.12039
1.32224
0.0323667
0.0976227
0.164459
0.233964
0.307272
0.385547
0.469942
0.561491
0.6609
0.76815
0.881772
0.997488
1.10613
1.19467
1.28729
0.0393523
0.118565
0.199306
0.282616
0.369553
0.46118
0.558524
0.662491
0.773676
0.89198
1.01568
1.13887
1.24319
1.26618
0.953831
0.0459884
0.138453
0.232385
0.32877
0.428602
0.53287
0.64254
0.758509
0.881536
1.01209
1.14999
1.29341
1.43677
1.57061
1.72826
0.0522885
0.157332
0.263774
0.372551
0.484596
0.600842
0.722216
0.84966
0.9842
1.12714
1.2805
1.44806
1.637
1.85859
2.10433
0.058268
0.175248
0.293558
0.414084
0.537702
0.665286
0.797713
0.93592
1.08107
1.23497
1.40121
1.58794
1.81463
2.12988
2.66551
0.0639424
0.19225
0.321821
0.453492
0.588084
0.726401
0.869234
1.0174
1.17189
1.33426
1.50776
1.70013
1.93082
2.24821
2.76906
0.0693269
0.208383
0.348643
0.490896
0.635911
0.784418
0.937092
1.09453
1.25728
1.42587
1.60124
1.78581
1.98687
2.22534
2.5485
0.0744356
0.223692
0.374098
0.526408
0.681345
0.83958
1.00168
1.16803
1.33864
1.51282
1.68839
1.86013
2.017
2.14376
2.28813
0.0792805
0.238212
0.398251
0.560123
0.724525
0.892097
1.06336
1.23861
1.41757
1.59885
1.77828
1.94487
2.06809
2.05005
1.50216
0.0838721
0.251975
0.421151
0.592109
0.765539
0.942093
1.12234
1.30664
1.49494
1.6862
1.87715
2.05984
2.21732
2.3244
2.42207
0.0882186
0.265004
0.442835
0.622408
0.804422
0.989571
1.17854
1.37195
1.57031
1.77379
1.98183
2.19243
2.40161
2.60541
2.80566
0.0923275
0.27732
0.463329
0.651043
0.841167
1.03445
1.2317
1.43387
1.64216
1.85826
2.08479
2.32612
2.58972
2.88898
3.25692
0.096206
0.288944
0.482663
0.678034
0.875762
1.07662
1.2815
1.49159
1.70864
1.93554
2.17755
2.44444
2.75315
3.125
3.53765
0.099863
0.299899
0.500872
0.703423
0.908228
1.11604
1.32774
1.54455
1.76832
2.00236
2.25311
2.53385
2.87284
3.33281
4.06885
0.103309
0.310219
0.518009
0.72728
0.938654
1.1528
1.3705
1.59272
1.82092
2.05764
2.30794
2.58292
2.90862
3.34906
4.072
0.106556
0.319942
0.534144
0.749711
0.967197
1.18716
1.41016
1.63679
1.86766
2.10355
2.3457
2.59692
2.8648
3.16926
3.54237
0.10962
0.329111
0.549355
0.770847
0.994068
1.21946
1.44738
1.67797
1.91098
2.14517
2.37725
2.59951
2.79565
2.94194
3.09612
0.112514
0.337774
0.563726
0.79082
1.01948
1.25006
1.48279
1.71755
1.95353
2.1883
2.4157
2.62038
2.76117
2.70929
1.96144
0.115252
0.345971
0.57733
0.809744
1.0436
1.27924
1.51685
1.75633
1.99697
2.23659
2.47003
2.68577
2.86055
2.96007
3.0317
0.117847
0.35374
0.590228
0.827703
1.06654
1.3071
1.54966
1.79439
2.04116
2.28923
2.53673
2.77977
3.01226
3.23038
3.44927
0.120309
0.361112
0.602469
0.844753
1.08834
1.33363
1.58105
1.8311
2.0845
2.34233
2.6066
2.88126
3.17406
3.50029
3.89635
0.122648
0.368115
0.614094
0.860936
1.10901
1.35875
1.61067
1.86557
2.12481
2.39099
2.66934
2.97028
3.31275
3.72186
4.17717
0.124875
0.37478
0.625149
0.876303
1.12859
1.3824
1.63829
1.89709
2.16037
2.43127
2.7165
3.03059
3.40529
3.91152
4.72288
0.127001
0.381138
0.635687
0.890926
1.14715
1.40468
1.66395
1.92557
2.1907
2.46167
2.7437
3.04896
3.4066
3.88946
4.69178
0.129037
0.387229
0.645775
0.904908
1.16485
1.42583
1.68804
1.9517
2.21703
2.48445
2.75489
3.03111
3.32107
3.64573
4.03439
0.130996
0.39309
0.655485
0.918368
1.1819
1.44618
1.7112
1.97672
2.24198
2.50518
2.76218
3.00389
3.21152
3.35772
3.50637
0.132891
0.39876
0.664886
0.931421
1.19848
1.46608
1.73409
2.00199
2.26843
2.53027
2.78018
3.00051
3.14471
3.06817
2.20767
0.134731
0.404269
0.674034
0.944156
1.21473
1.48577
1.75714
2.02833
2.29813
2.56371
2.81883
3.05017
3.23124
3.3232
3.37766
0.136523
0.40964
0.682963
0.956619
1.23071
1.5053
1.78037
2.05572
2.33083
2.60446
2.87408
3.1349
3.37975
3.60444
3.82817
0.138273
0.414884
0.691691
0.968823
1.24641
1.52457
1.80348
2.08336
2.3646
2.64806
2.93552
3.2309
3.54238
3.88648
4.30249
0.139983
0.420011
0.700225
0.980757
1.26175
1.5434
1.826
2.11011
2.39692
2.68893
2.99155
3.31588
3.68246
4.11875
4.60275
0.141656
0.425025
0.70857
0.992414
1.2767
1.56163
1.84753
2.13507
2.42568
2.72251
3.03261
3.37166
3.77426
4.31805
5.19322
0.143294
0.429936
0.716737
1.00381
1.29126
1.57925
1.868
2.15798
2.45018
2.74693
3.05367
3.38348
3.76814
4.28741
5.15478
0.144902
0.434754
0.72475
1.01498
1.30551
1.59641
1.8877
2.17942
2.47161
2.76447
3.05882
3.35739
3.66864
4.01523
4.42863
0.146482
0.439491
0.732633
1.02598
1.31956
1.61335
1.90718
2.2006
2.49262
2.78105
3.06114
3.32267
3.54469
3.69682
3.8484
0.148035
0.444154
0.740407
1.03686
1.33353
1.63034
1.92701
2.22283
2.51619
2.80349
3.07647
3.31555
3.46936
3.37896
2.42636
0.149562
0.448741
0.748072
1.04763
1.34746
1.6475
1.9475
2.24683
2.54405
2.83591
3.11544
3.36782
3.56369
3.66
3.71282
0.151059
0.453239
0.755606
1.05827
1.36131
1.66475
1.96853
2.27239
2.57567
2.87696
3.17337
3.45951
3.72724
3.9714
4.21123
0.152517
0.457627
0.762967
1.06869
1.37493
1.68184
1.98959
2.29841
2.60874
2.92146
3.23852
3.56416
3.90728
4.28595
4.74372
0.153927
0.461873
0.770096
1.07878
1.38814
1.69841
2.00997
2.32346
2.64021
2.963
3.29779
3.65682
4.06275
4.54573
5.08056
0.15528
0.465945
0.776932
1.08846
1.40077
1.71417
2.02908
2.34633
2.66754
2.99627
3.34033
3.71708
4.16483
4.76969
5.74313
0.156564
0.469812
0.783422
1.09764
1.41271
1.72892
2.04666
2.36652
2.68974
3.01895
3.36026
3.72819
4.15793
4.73787
5.70426
0.15777
0.473445
0.789523
1.10626
1.42391
1.74269
2.06282
2.38446
2.70783
3.03329
3.36183
3.69655
4.04684
4.43786
4.90506
0.158889
0.476817
0.795194
1.1143
1.43438
1.7556
2.07799
2.40127
2.72454
3.04555
3.35921
3.65427
3.90753
4.08513
4.26349
0.159908
0.479895
0.800388
1.1217
1.44411
1.76776
2.09262
2.41816
2.74286
3.06298
3.36961
3.64119
3.82084
3.73203
2.68789
0.160814
0.482637
0.805042
1.12839
1.45302
1.77916
2.10684
2.4357
2.76444
3.08983
3.40444
3.69214
3.92064
4.04249
4.12046
0.16159
0.484994
0.809066
1.13424
1.46094
1.78954
2.12032
2.45338
2.7884
3.12421
3.45804
3.78435
4.09459
4.38359
4.67321
0.162217
0.486903
0.812351
1.13907
1.4676
1.79847
2.13229
2.46977
2.81186
3.16003
3.51696
3.88791
4.28338
4.72439
5.26086
0.162673
0.4883
0.814779
1.1427
1.47267
1.80542
2.1418
2.48304
2.83115
3.1898
3.56621
3.97457
4.44067
4.99906
5.6249
0.162938
0.489123
0.816236
1.14492
1.47588
1.8099
2.14799
2.49161
2.84318
3.20731
3.59337
4.02126
4.53398
5.22704
6.33302
0.162996
0.489316
0.816628
1.14562
1.47701
1.81162
2.15042
2.49471
2.84655
3.20963
3.59157
4.00922
4.50215
5.16844
6.27074
0.162831
0.488837
0.815882
1.14468
1.47596
1.81049
2.14909
2.49264
2.84216
3.19893
3.56507
3.94505
4.35002
4.80721
5.349
0.162431
0.48765
0.813947
1.14205
1.47269
1.80659
2.14439
2.4865
2.83278
3.18177
3.52906
3.86368
4.16171
4.38739
4.62386
0.161788
0.485731
0.810784
1.13769
1.46721
1.80004
2.13675
2.47752
2.82157
3.16585
3.50193
3.80787
4.0237
3.96021
2.87616
0.160893
0.483057
0.806356
1.13157
1.45947
1.79085
2.12636
2.46632
2.81024
3.15567
3.49582
3.8148
4.07972
4.24187
4.37036
0.159742
0.479607
0.800626
1.1236
1.44938
1.77885
2.11292
2.45243
2.79792
3.14918
3.50447
3.85941
4.20717
4.54706
4.91631
0.158331
0.475371
0.79356
1.11372
1.43676
1.7637
2.09577
2.43445
2.78163
3.13994
3.51345
3.90915
4.34018
4.83197
5.43947
0.156662
0.47035
0.785149
1.10187
1.42146
1.74505
2.07409
2.41061
2.75765
3.12019
3.50706
3.93447
4.43107
5.03665
5.74215
0.154745
0.46457
0.775423
1.08807
1.40343
1.72265
2.04727
2.37953
2.72295
3.08358
3.47258
3.91187
4.44637
5.17206
6.31276
0.152599
0.458087
0.764469
1.07242
1.38277
1.69655
2.01519
2.34074
2.67636
3.02732
3.40325
3.82328
4.32896
5.01942
6.16326
0.150256
0.450996
0.752443
1.05514
1.35975
1.66712
1.97836
2.29501
2.61914
2.95376
3.30336
3.67533
4.0833
4.55205
5.08816
0.147758
0.443425
0.739567
1.03656
1.33485
1.63503
1.93784
2.24411
2.55469
2.86985
3.188
3.5025
3.79548
4.03802
4.30983
0.145157
0.435536
0.726122
1.01709
1.30868
1.60117
1.89494
2.19028
2.48708
2.78388
3.07525
3.34472
3.54271
3.50377
2.56374
0.142514
0.427512
0.712428
0.997226
1.2819
1.56647
1.851
2.13546
2.41951
2.70171
2.97776
3.2367
3.45451
3.59536
3.72564
0.139894
0.419555
0.698833
0.977472
1.25522
1.53184
1.80713
2.08097
2.35326
2.62384
2.89219
3.15734
3.4198
3.6944
4.05972
0.137365
0.411872
0.685697
0.95836
1.22935
1.49816
1.76432
2.02759
2.28823
2.54753
2.80888
3.07994
3.3767
3.7305
4.19322
0.134995
0.40467
0.673383
0.94043
1.20503
1.46634
1.72355
1.97608
2.22416
2.46981
2.71888
2.98477
3.29405
3.69103
4.22011
0.132845
0.398144
0.662239
0.924217
1.18302
1.43741
1.68605
1.9277
2.16181
2.38972
2.61723
2.85954
3.15052
3.55992
4.22381
0.130968
0.392462
0.652576
0.910228
1.16409
1.41249
1.65343
1.88459
2.10379
2.30995
2.50536
2.70058
2.92481
3.25214
3.89611
0.129401
0.387743
0.644635
0.898887
1.14896
1.39279
1.62762
1.84981
2.05486
2.23765
2.39365
2.52154
2.62754
2.72453
2.76805
0.128157
0.384036
0.638534
0.890462
1.13818
1.37936
1.6106
1.82696
2.02139
2.18397
2.30149
2.35776
2.33657
2.23412
2.13164
0.127215
0.381292
0.634226
0.884965
1.13196
1.37285
1.60392
1.81937
2.01004
2.16161
2.25191
2.24785
2.10205
1.7438
1.00159
0.12652
0.379344
0.631446
0.882073
1.12999
1.37315
1.6081
1.82898
2.02587
2.1818
2.2679
2.23643
2.01509
1.52015
0.747247
0.125975
0.377899
0.629694
0.881063
1.13134
1.37918
1.62204
1.85526
2.07015
2.2505
2.36556
2.35692
2.11817
1.48958
0.437957
0.125446
0.376546
0.628238
0.880813
1.13437
1.38865
1.6427
1.89427
2.13843
2.36457
2.54918
2.63728
2.49199
1.75279
-0.549403
0.124775
0.374781
0.626168
0.879881
1.1369
1.39828
1.66509
1.93844
2.21924
2.50753
2.79988
3.07977
3.27823
3.1014
1.22832
0.123785
0.372058
0.622481
0.876644
1.13641
1.40412
1.68293
1.97744
2.29489
2.64772
3.05932
3.57889
4.325
5.62768
8.5385
8.37429
5.31764
3.99563
3.26264
2.76647
2.382
2.05762
1.769
1.50326
1.25294
1.01337
0.781386
0.554685
0.331482
0.110277
0.59961
2.64541
2.88553
2.72701
2.48179
2.22266
1.96685
1.71786
1.47565
1.23931
1.00778
0.780057
0.555195
0.332331
0.110647
-1.26383
1.22722
2.05221
2.25159
2.20678
2.06103
1.87136
1.66203
1.44398
1.22234
0.999558
0.77674
0.554318
0.332361
0.110746
-0.113198
0.965999
1.65332
1.94577
2.00189
1.92993
1.78956
1.61228
1.41481
1.20618
0.991358
0.773147
0.553117
0.332154
0.110759
0.130796
0.976905
1.52864
1.80409
1.886
1.84637
1.73341
1.57657
1.39341
1.19431
0.985517
0.77082
0.552566
0.332247
0.110859
0.466824
1.19225
1.59582
1.79689
1.85454
1.81377
1.70773
1.55917
1.38308
1.18919
0.983783
0.770967
0.553452
0.333084
0.111188
1.4454
1.63115
1.80367
1.88935
1.89146
1.82653
1.71161
1.5609
1.38513
1.19207
0.987207
0.774387
0.556326
0.334986
0.111852
2.01595
2.0793
2.07185
2.03991
1.975
1.87402
1.74037
1.58004
1.3992
1.20317
0.996171
0.781456
0.561484
0.338138
0.112913
3.0559
2.57666
2.35711
2.21344
2.08365
1.94423
1.78767
1.61345
1.42386
1.2219
1.01051
0.792191
0.568996
0.3426
0.114395
3.39439
2.89374
2.58973
2.3774
2.19903
2.02638
1.84725
1.65757
1.45712
1.24722
1.02969
0.806327
0.578743
0.348325
0.116284
3.51642
3.07435
2.75875
2.51786
2.31048
2.11307
1.91418
1.70921
1.49696
1.27786
1.05294
0.823415
0.59047
0.355185
0.118543
3.55469
3.16719
2.87596
2.63512
2.41507
2.2008
1.98538
1.76593
1.54161
1.31257
1.07941
0.8429
0.603836
0.362997
0.121113
3.52446
3.19324
2.95825
2.73801
2.51567
2.28937
2.0594
1.82606
1.58957
1.35018
1.10824
0.864178
0.618452
0.371542
0.123925
3.2688
3.15255
3.03035
2.84246
2.61909
2.3805
2.13579
1.88842
1.63958
1.3896
1.13858
0.886634
0.633905
0.380587
0.126903
2.28334
3.11606
3.14814
2.97163
2.73312
2.47593