/*--------------------------------*- C++ -*----------------------------------*\
| =========                 |                                                 |
| \\      /  F ield         | OpenFOAM: The Open Source CFD Toolbox           |
|  \\    /   O peration     | Version:  5.x                                   |
|   \\  /    A nd           | Web:      www.OpenFOAM.org                      |
|    \\/     M anipulation  |                                                 |
\*---------------------------------------------------------------------------*/
FoamFile
{
    version     2.0;
    format      ascii;
    class       volScalarField;
    location    "4.5";
    object      T;
}
// * * * * * * * * * * * * * * * * * * * * * * * * * * * * * * * * * * * * * //

dimensions      [0 0 0 1 0 0 0];

internalField   nonuniform List<scalar> 
6300
(
322.746
322.239
321.733
321.226
320.721
320.216
319.712
319.209
318.708
318.209
317.711
317.215
316.721
316.229
315.74
322.746
322.239
321.732
321.226
320.72
320.215
319.711
319.208
318.707
318.207
317.709
317.213
316.719
316.227
315.738
322.746
322.239
321.731
321.224
320.718
320.213
319.708
319.205
318.703
318.203
317.705
317.209
316.714
316.222
315.733
322.746
322.238
321.73
321.222
320.716
320.21
319.705
319.201
318.699
318.198
317.699
317.202
316.708
316.215
315.725
322.746
322.237
321.728
321.22
320.712
320.205
319.7
319.195
318.692
318.191
317.691
317.194
316.698
316.206
315.715
322.745
322.235
321.726
321.216
320.708
320.2
319.693
319.188
318.684
318.181
317.681
317.183
316.687
316.194
315.703
322.745
322.234
321.723
321.213
320.703
320.194
319.686
319.179
318.674
318.17
317.669
317.169
316.673
316.179
315.688
322.744
322.232
321.72
321.208
320.697
320.187
319.677
319.169
318.662
318.157
317.654
317.153
316.656
316.161
315.67
322.743
322.23
321.716
321.203
320.691
320.179
319.667
319.157
318.649
318.142
317.637
317.135
316.636
316.14
315.649
322.742
322.227
321.712
321.198
320.683
320.17
319.656
319.144
318.633
318.124
317.617
317.113
316.612
316.116
315.624
322.742
322.225
321.708
321.192
320.676
320.16
319.644
319.13
318.616
318.104
317.594
317.087
316.584
316.086
315.594
322.741
322.222
321.704
321.186
320.668
320.15
319.632
319.115
318.598
318.082
317.568
317.057
316.55
316.049
315.558
322.74
322.22
321.7
321.179
320.659
320.139
319.619
319.098
318.578
318.059
317.54
317.023
316.51
316.004
315.51
322.739
322.217
321.695
321.173
320.651
320.128
319.606
319.082
318.558
318.034
317.51
316.985
316.463
315.946
315.445
322.738
322.215
321.691
321.167
320.643
320.118
319.593
319.066
318.539
318.01
317.479
316.946
316.41
315.872
315.343
315.294
314.89
314.487
314.087
313.688
313.292
312.898
312.506
312.116
311.729
311.345
310.964
310.586
310.211
309.84
309.472
309.107
308.747
308.39
308.037
307.688
307.343
307.002
306.664
306.33
306
305.672
305.349
305.028
304.71
304.396
304.084
303.775
303.468
303.164
302.862
302.562
302.265
301.97
301.677
301.386
301.097
300.81
300.525
300.242
299.961
299.683
299.406
299.131
298.858
298.586
298.317
298.049
297.783
297.518
297.255
296.993
296.732
296.473
296.214
295.956
295.699
295.442
295.186
294.931
294.675
294.42
294.165
293.91
293.655
293.399
293.143
292.887
292.631
292.374
292.116
291.857
291.597
291.337
291.075
290.812
290.548
290.283
290.016
289.747
289.477
289.205
288.932
288.656
288.379
315.291
314.887
314.485
314.084
313.685
313.289
312.894
312.502
312.112
311.725
311.341
310.959
310.581
310.206
309.834
309.466
309.102
308.741
308.385
308.032
307.683
307.338
306.996
306.659
306.325
305.994
305.668
305.344
305.023
304.706
304.392
304.08
303.771
303.464
303.16
302.859
302.559
302.262
301.967
301.674
301.383
301.094
300.807
300.522
300.239
299.958
299.68
299.403
299.128
298.855
298.584
298.314
298.047
297.781
297.516
297.253
296.991
296.731
296.471
296.213
295.955
295.698
295.442
295.186
294.93
294.675
294.42
294.165
293.91
293.655
293.399
293.144
292.888
292.632
292.374
292.117
291.858
291.599
291.338
291.077
290.814
290.55
290.285
290.018
289.749
289.479
289.208
288.934
288.659
288.382
315.286
314.882
314.479
314.078
313.679
313.282
312.888
312.495
312.105
311.717
311.332
310.95
310.571
310.196
309.824
309.456
309.091
308.73
308.373
308.021
307.672
307.327
306.985
306.648
306.314
305.984
305.658
305.334
305.014
304.697
304.383
304.072
303.763
303.457
303.153
302.852
302.552
302.255
301.96
301.667
301.377
301.088
300.801
300.516
300.233
299.952
299.674
299.397
299.122
298.849
298.578
298.309
298.042
297.776
297.512
297.249
296.988
296.727
296.468
296.21
295.953
295.696
295.44
295.184
294.929
294.674
294.419
294.164
293.91
293.655
293.4
293.145
292.889
292.633
292.376
292.119
291.861
291.601
291.341
291.08
290.818
290.554
290.289
290.022
289.754
289.484
289.212
288.939
288.664
288.387
315.278
314.874
314.471
314.07
313.671
313.273
312.878
312.484
312.093
311.705
311.319
310.936
310.557
310.181
309.808
309.439
309.074
308.713
308.356
308.003
307.655
307.31
306.969
306.632
306.299
305.969
305.643
305.32
305.001
304.684
304.371
304.06
303.752
303.446
303.143
302.841
302.542
302.246
301.951
301.658
301.367
301.078
300.792
300.507
300.224
299.943
299.664
299.388
299.113
298.84
298.57
298.301
298.034
297.769
297.505
297.243
296.982
296.722
296.464
296.206
295.949
295.693
295.437
295.182
294.927
294.673
294.418
294.164
293.91
293.656
293.401
293.146
292.891
292.635
292.379
292.122
291.864
291.605
291.346
291.085
290.823
290.56
290.295
290.029
289.761
289.491
289.22
288.947
288.672
288.394
315.268
314.863
314.46
314.059
313.659
313.261
312.864
312.47
312.078
311.688
311.301
310.918
310.537
310.16
309.787
309.417
309.052
308.691
308.333
307.98
307.632
307.287
306.946
306.61
306.277
305.948
305.623
305.301
304.983
304.667
304.354
304.044
303.737
303.432
303.129
302.828
302.529
302.233
301.938
301.646
301.355
301.066
300.779
300.495
300.212
299.931
299.652
299.376
299.101
298.829
298.559
298.29
298.024
297.759
297.496
297.235
296.975
296.716
296.458
296.201
295.944
295.689
295.434
295.179
294.925
294.671
294.417
294.164
293.91
293.656
293.402
293.148
292.893
292.638
292.382
292.126
291.869
291.611
291.352
291.091
290.83
290.567
290.303
290.037
289.77
289.501
289.23
288.957
288.682
288.405
315.256
314.85
314.447
314.045
313.645
313.246
312.848
312.453
312.059
311.668
311.279
310.894
310.512
310.134
309.76
309.39
309.023
308.662
308.304
307.951
307.602
307.258
306.918
306.582
306.251
305.923
305.598
305.278
304.96
304.646
304.334
304.025
303.718
303.414
303.111
302.811
302.513
302.217
301.922
301.63
301.34
301.051
300.764
300.479
300.196
299.916
299.637
299.36
299.086
298.814
298.544
298.277
298.011
297.747
297.485
297.225
296.965
296.707
296.45
296.194
295.939
295.684
295.429
295.176
294.922
294.669
294.416
294.163
293.91
293.657
293.404
293.15
292.896
292.642
292.387
292.131
291.875
291.617
291.359
291.1
290.839
290.577
290.313
290.048
289.781
289.513
289.242
288.97
288.695
288.418
315.24
314.835
314.432
314.029
313.628
313.229
312.83
312.432
312.037
311.644
311.253
310.866
310.482
310.102
309.727
309.356
308.989
308.626
308.269
307.915
307.567
307.223
306.884
306.549
306.218
305.892
305.569
305.249
304.933
304.62
304.309
304.001
303.696
303.392
303.091
302.791
302.494
302.198
301.904
301.612
301.322
301.033
300.746
300.461
300.178
299.897
299.618
299.341
299.067
298.796
298.527
298.26
297.995
297.733
297.472
297.212
296.954
296.697
296.441
296.186
295.932
295.678
295.424
295.171
294.919
294.666
294.414
294.162
293.91
293.658
293.405
293.153
292.899
292.646
292.392
292.137
291.882
291.626
291.368
291.109
290.85
290.588
290.326
290.061
289.795
289.528
289.258
288.986
288.712
288.435
315.223
314.818
314.414
314.012
313.61
313.21
312.809
312.41
312.011
311.615
311.222
310.832
310.446
310.064
309.688
309.315
308.948
308.585
308.226
307.873
307.524
307.181
306.843
306.509
306.18
305.855
305.534
305.216
304.901
304.59
304.281
303.975
303.671
303.368
303.068
302.769
302.471
302.176
301.883
301.591
301.301
301.012
300.725
300.44
300.156
299.875
299.596
299.319
299.045
298.774
298.506
298.24
297.977
297.715
297.456
297.198
296.941
296.686
296.431
296.177
295.924
295.671
295.419
295.166
294.915
294.663
294.412
294.161
293.91
293.659
293.407
293.156
292.903
292.651
292.398
292.144
291.89
291.635
291.379
291.121
290.862
290.602
290.34
290.077
289.812
289.545
289.277
289.005
288.732
288.455
315.202
314.798
314.395
313.993
313.592
313.19
312.787
312.385
311.983
311.582
311.185
310.792
310.403
310.02
309.642
309.268
308.9
308.536
308.177
307.823
307.475
307.132
306.795
306.463
306.136
305.813
305.493
305.178
304.865
304.556
304.249
303.945
303.642
303.341
303.042
302.743
302.446
302.151
301.858
301.567
301.278
300.989
300.702
300.416
300.132
299.849
299.569
299.292
299.019
298.748
298.481
298.217
297.955
297.695
297.437
297.181
296.926
296.673
296.42
296.168
295.916
295.664
295.412
295.161
294.91
294.66
294.41
294.16
293.911
293.66
293.41
293.159
292.908
292.656
292.404
292.152
291.9
291.646
291.391
291.135
290.876
290.617
290.356
290.095
289.831
289.566
289.299
289.028
288.755
288.479
315.178
314.775
314.375
313.974
313.573
313.17
312.765
312.359
311.951
311.545
311.143
310.745
310.353
309.968
309.588
309.214
308.845
308.48
308.12
307.765
307.417
307.075
306.739
306.41
306.085
305.765
305.448
305.134
304.824
304.518
304.214
303.912
303.612
303.312
303.013
302.715
302.419
302.124
301.832
301.541
301.253
300.965
300.677
300.39
300.104
299.82
299.538
299.26
298.987
298.718
298.452
298.19
297.93
297.672
297.416
297.162
296.909
296.658
296.408
296.158
295.907
295.656
295.405
295.154
294.904
294.655
294.407
294.159
293.911
293.662
293.413
293.162
292.912
292.661
292.411
292.161
291.911
291.659
291.406
291.15
290.893
290.634
290.375
290.114
289.853
289.59
289.324
289.056
288.784
288.508
315.15
314.751
314.353
313.956
313.557
313.154
312.746
312.334
311.919
311.504
311.093
310.689
310.294
309.907
309.528
309.154
308.784
308.417
308.055
307.698
307.349
307.008
306.675
306.349
306.029
305.712
305.397
305.086
304.779
304.475
304.176
303.878
303.581
303.283
302.984
302.685
302.388
302.093
301.802
301.513
301.226
300.939
300.651
300.362
300.073
299.786
299.502
299.223
298.949
298.682
298.419
298.16
297.902
297.646
297.392
297.14
296.89
296.642
296.395
296.148
295.899
295.648
295.397
295.146
294.897
294.649
294.404
294.159
293.913
293.666
293.417
293.166
292.916
292.666
292.418
292.171
291.924
291.675
291.423
291.168
290.911
290.652
290.394
290.136
289.877
289.617
289.355
289.088
288.817
288.542
315.117
314.722
314.331
313.941
313.547
313.145
312.733
312.312
311.885
311.456
311.034
310.621
310.222
309.835
309.459
309.088
308.718
308.349
307.981
307.62
307.269
306.929
306.6
306.281
305.967
305.655
305.343
305.032
304.727
304.428
304.134
303.843
303.55
303.254
302.954
302.653
302.353
302.057
301.767
301.483
301.2
300.915
300.627
300.335
300.04
299.747
299.458
299.176
298.903
298.638
298.381
298.127
297.873
297.618
297.365
297.114
296.868
296.625
296.384
296.14
295.893
295.642
295.389
295.136
294.886
294.641
294.4
294.16
293.917
293.671
293.422
293.17
292.918
292.669
292.423
292.181
291.939
291.694
291.444
291.189
290.931
290.671
290.413
290.157
289.903
289.649
289.39
289.127
288.857
288.583
315.075
314.69
314.306
313.931
313.55
313.15
312.734
312.298
311.853
311.4
310.961
310.534
310.131
309.746
309.381
309.021
308.651
308.277
307.897
307.529
307.172
306.835
306.512
306.206
305.905
305.596
305.285
304.97
304.666
304.371
304.09
303.811
303.524
303.23
302.926
302.62
302.311
302.013
301.724
301.449
301.177
300.896
300.608
300.309
300.007
299.7
299.404
299.116
298.845
298.585
298.337
298.093
297.843
297.589
297.332
297.083
296.84
296.607
296.376
296.137
295.892
295.637
295.38
295.12
294.869
294.626
294.394
294.163
293.926
293.682
293.43
293.175
292.916
292.666
292.424
292.191
291.959
291.719
291.472
291.215
290.953
290.687
290.428
290.174
289.93
289.687
289.433
289.173
288.904
288.632
315.018
314.654
314.269
313.928
313.582
313.176
312.765
312.296
311.834
311.324
310.868
310.413
310.016
309.629
309.297
308.968
308.591
308.214
307.797
307.422
307.047
306.719
306.399
306.124
305.852
305.541
305.233
304.894
304.592
304.295
304.041
303.791
303.506
303.221
302.902
302.591
302.253
301.954
301.662
301.412
301.166
300.886
300.605
300.289
299.979
299.64
299.337
299.034
298.77
298.512
298.29
298.069
297.817
297.565
297.288
297.041
296.797
296.587
296.379
296.142
295.904
295.637
295.376
295.092
294.841
294.595
294.385
294.178
293.942
293.706
293.442
293.184
292.902
292.654
292.409
292.199
291.991
291.754
291.516
291.247
290.983
290.693
290.434
290.178
289.957
289.738
289.486
289.234
288.954
288.692
314.924
314.651
314.168
313.934
313.698
313.211
312.877
312.284
311.885
311.169
310.776
310.206
309.887
309.431
309.209
308.986
308.528
308.21
307.634
307.316
306.853
306.592
306.22
306.037
305.855
305.482
305.225
304.763
304.512
304.157
303.987
303.821
303.487
303.26
302.865
302.602
302.137
301.887
301.537
301.369
301.205
300.877
300.652
300.259
299.995
299.526
299.268
298.896
298.686
298.387
298.239
298.091
297.788
297.579
297.201
296.996
296.704
296.563
296.425
296.147
295.958
295.626
295.405
295.016
294.806
294.513
294.371
294.234
293.959
293.771
293.444
293.226
292.842
292.634
292.344
292.203
292.066
291.791
291.602
291.272
291.049
290.653
290.437
290.131
289.983
289.836
289.538
289.335
288.977
288.777
288.072
287.735
287.395
287.053
286.709
286.362
286.013
285.663
285.311
284.958
284.603
284.248
283.892
283.535
283.179
288.075
287.737
287.398
287.055
286.711
286.364
286.015
285.665
285.312
284.959
284.604
284.249
283.893
283.536
283.179
288.08
287.742
287.402
287.06
286.715
286.368
286.019
285.668
285.315
284.961
284.606
284.25
283.894
283.536
283.179
288.088
287.75
287.41
287.067
286.721
286.374
286.024
285.672
285.319
284.965
284.609
284.252
283.895
283.537
283.179
288.098
287.76
287.419
287.076
286.73
286.381
286.031
285.678
285.325
284.969
284.613
284.255
283.897
283.538
283.18
288.111
287.773
287.432
287.088
286.741
286.391
286.04
285.686
285.331
284.975
284.617
284.259
283.9
283.54
283.18
288.128
287.789
287.447
287.102
286.754
286.403
286.05
285.696
285.339
284.982
284.623
284.263
283.903
283.542
283.181
288.148
287.809
287.466
287.119
286.77
286.417
286.063
285.707
285.349
284.989
284.629
284.268
283.906
283.544
283.181
288.172
287.832
287.487
287.139
286.788
286.434
286.077
285.719
285.359
284.998
284.636
284.273
283.91
283.546
283.182
288.2
287.859
287.513
287.163
286.809
286.452
286.094
285.733
285.371
285.008
284.644
284.279
283.914
283.549
283.183
288.234
287.891
287.543
287.19
286.833
286.473
286.112
285.748
285.384
285.019
284.653
284.286
283.919
283.551
283.184
288.275
287.93
287.577
287.22
286.859
286.496
286.131
285.765
285.398
285.03
284.662
284.293
283.924
283.554
283.185
288.324
287.975
287.617
287.254
286.888
286.52
286.152
285.783
285.413
285.042
284.672
284.3
283.929
283.558
283.186
288.386
288.029
287.661
287.29
286.918
286.546
286.173
285.801
285.428
285.055
284.681
284.308
283.934
283.561
283.187
288.473
288.093
287.709
287.328
286.949
286.571
286.195
285.819
285.443
285.067
284.692
284.316
283.94
283.564
283.188
322.738
322.213
321.688
321.162
320.636
320.109
319.582
319.053
318.522
317.989
317.453
316.912
316.363
315.796
315.184
322.737
322.211
321.685
321.158
320.63
320.102
319.573
319.042
318.509
317.973
317.433
316.888
316.332
315.759
315.148
322.736
322.209
321.682
321.154
320.625
320.096
319.565
319.032
318.497
317.959
317.417
316.87
316.314
315.748
315.171
322.736
322.208
321.679
321.15
320.621
320.09
319.558
319.024
318.487
317.948
317.405
316.857
316.303
315.743
315.178
322.736
322.207
321.677
321.148
320.617
320.085
319.552
319.017
318.48
317.94
317.397
316.849
316.297
315.741
315.184
322.735
322.206
321.676
321.145
320.614
320.081
319.548
319.012
318.474
317.934
317.391
316.844
316.294
315.741
315.186
322.735
322.205
321.674
321.143
320.612
320.079
319.544
319.008
318.47
317.93
317.387
316.841
316.292
315.741
315.187
322.735
322.204
321.674
321.142
320.61
320.077
319.542
319.006
318.468
317.928
317.385
316.84
316.293
315.743
315.19
322.735
322.204
321.673
321.141
320.609
320.076
319.541
319.005
318.467
317.928
317.386
316.841
316.295
315.746
315.194
322.735
322.204
321.673
321.141
320.609
320.076
319.541
319.005
318.468
317.929
317.387
316.844
316.299
315.751
315.202
322.735
322.204
321.673
321.142
320.61
320.076
319.542
319.007
318.47
317.931
317.39
316.848
316.304
315.757
315.208
322.735
322.204
321.674
321.143
320.611
320.078
319.544
319.009
318.473
317.935
317.395
316.853
316.31
315.765
315.22
322.735
322.205
321.675
321.144
320.612
320.08
319.547
319.012
318.477
317.939
317.401
316.86
316.318
315.774
315.228
322.735
322.206
321.676
321.146
320.615
320.083
319.55
319.017
318.482
317.945
317.407
316.868
316.327
315.784
315.242
322.736
322.207
321.677
321.148
320.618
320.087
319.555
319.022
318.488
317.952
317.415
316.877
316.336
315.794
315.249
322.736
322.208
321.679
321.15
320.621
320.091
319.56
319.028
318.495
317.96
317.424
316.887
316.347
315.805
315.258
322.736
322.209
321.681
321.153
320.625
320.095
319.565
319.034
318.502
317.969
317.434
316.898
316.36
315.82
315.278
322.737
322.21
321.684
321.156
320.629
320.101
319.572
319.042
318.511
317.979
317.446
316.911
316.375
315.836
315.293
322.737
322.212
321.686
321.16
320.634
320.107
319.579
319.05
318.52
317.99
317.458
316.925
316.39
315.856
315.322
322.738
322.213
321.689
321.164
320.639
320.113
319.586
319.059
318.531
318.001
317.471
316.939
316.407
315.874
315.339
322.738
322.215
321.692
321.168
320.644
320.12
319.594
319.068
318.541
318.013
317.484
316.954
316.424
315.893
315.365
322.739
322.217
321.695
321.173
320.65
320.127
319.603
319.078
318.553
318.026
317.499
316.97
316.44
315.909
315.377
322.74
322.219
321.699
321.178
320.656
320.134
319.612
319.089
318.565
318.04
317.514
316.987
316.458
315.927
315.39
322.74
322.221
321.702
321.183
320.663
320.143
319.622
319.1
318.578
318.054
317.53
317.005
316.477
315.948
315.418
322.741
322.224
321.706
321.188
320.67
320.151
319.632
319.112
318.591
318.07
317.547
317.023
316.498
315.97
315.437
322.742
322.226
321.71
321.194
320.677
320.16
319.642
319.124
318.605
318.085
317.565
317.043
316.521
315.996
315.472
322.743
322.228
321.714
321.199
320.684
320.169
319.653
319.137
318.62
318.102
317.583
317.064
316.544
316.022
315.496
322.744
322.231
321.718
321.205
320.692
320.178
319.664
319.15
318.635
318.119
317.602
317.086
316.568
316.052
315.54
322.745
322.234
321.723
321.211
320.7
320.188
319.676
319.163
318.65
318.136
317.622
317.107
316.592
316.078
315.564
322.745
322.236
321.727
321.218
320.708
320.198
319.688
319.177
318.666
318.154
317.642
317.129
316.616
316.105
315.599
322.746
322.239
321.732
321.224
320.717
320.208
319.7
319.191
318.682
318.172
317.662
317.151
316.639
316.127
315.615
322.747
322.242
321.737
321.231
320.725
320.219
319.713
319.206
318.698
318.19
317.682
317.173
316.662
316.15
315.631
322.748
322.245
321.741
321.238
320.734
320.23
319.725
319.22
318.715
318.209
317.703
317.195
316.687
316.176
315.666
322.749
322.248
321.746
321.245
320.743
320.241
319.738
319.236
318.732
318.229
317.724
317.219
316.712
316.204
315.689
322.75
322.251
321.751
321.252
320.752
320.252
319.752
319.251
318.75
318.248
317.746
317.243
316.74
316.235
315.731
322.751
322.254
321.757
321.259
320.761
320.263
319.765
319.267
318.768
318.268
317.769
317.268
316.768
316.266
315.759
322.752
322.257
321.762
321.266
320.771
320.275
319.779
319.283
318.786
318.289
317.791
317.294
316.796
316.3
315.809
322.753
322.26
321.767
321.274
320.78
320.287
319.793
319.299
318.804
318.309
317.814
317.319
316.824
316.33
315.837
322.755
322.264
321.773
321.282
320.79
320.299
319.807
319.315
318.823
318.33
317.837
317.344
316.852
316.361
315.877
322.756
322.267
321.778
321.289
320.8
320.311
319.821
319.332
318.842
318.351
317.86
317.369
316.878
316.386
315.895
322.757
322.27
321.784
321.297
320.81
320.323
319.836
319.348
318.861
318.372
317.884
317.394
316.904
316.412
315.913
322.758
322.274
321.789
321.305
320.82
320.336
319.851
319.365
318.88
318.394
317.907
317.42
316.932
316.442
315.951
322.759
322.277
321.795
321.313
320.831
320.348
319.866
319.383
318.899
318.416
317.932
317.447
316.96
316.472
315.977
322.76
322.281
321.801
321.321
320.841
320.361
319.881
319.4
318.919
318.438
317.956
317.474
316.991
316.507
316.023
322.761
322.284
321.807
321.329
320.852
320.374
319.896
319.418
318.939
318.461
317.981
317.502
317.022
316.541
316.054
322.763
322.288
321.813
321.338
320.862
320.387
319.912
319.436
318.96
318.483
318.007
317.53
317.054
316.579
316.11
322.764
322.291
321.819
321.346
320.873
320.4
319.927
319.454
318.98
318.506
318.032
317.558
317.085
316.612
316.14
322.765
322.295
321.825
321.355
320.884
320.414
319.943
319.472
319.001
318.529
318.058
317.586
317.115
316.645
316.184
322.766
322.299
321.831
321.363
320.895
320.427
319.959
319.491
319.022
318.553
318.083
317.614
317.144
316.674
316.204
322.767
322.302
321.837
321.372
320.906
320.441
319.975
319.509
319.043
318.576
318.109
317.641
317.173
316.702
316.224
322.769
322.306
321.843
321.381
320.918
320.455
319.991
319.528
319.064
318.6
318.135
317.67
317.203
316.735
316.266
322.77
322.31
321.85
321.39
320.929
320.469
320.008
319.547
319.086
318.624
318.162
317.699
317.235
316.768
316.294
322.771
322.314
321.856
321.398
320.941
320.483
320.025
319.566
319.108
318.649
318.189
317.729
317.268
316.806
316.345
322.773
322.318
321.863
321.407
320.952
320.497
320.041
319.586
319.13
318.674
318.217
317.76
317.302
316.844
316.379
322.774
322.321
321.869
321.417
320.964
320.511
320.058
319.605
319.152
318.699
318.245
317.791
317.338
316.886
316.441
322.775
322.325
321.876
321.426
320.976
320.526
320.076
319.625
319.175
318.724
318.273
317.822
317.372
316.923
316.474
322.776
322.329
321.882
321.435
320.988
320.54
320.093
319.645
319.197
318.749
318.301
317.853
317.405
316.96
316.522
322.778
322.333
321.889
321.444
321
320.555
320.11
319.665
319.22
318.775
318.329
317.883
317.437
316.991
316.545
322.779
322.337
321.896
321.454
321.012
320.57
320.128
319.685
319.243
318.8
318.357
317.913
317.469
317.022
316.567
322.78
322.341
321.902
321.463
321.024
320.585
320.145
319.706
319.266
318.826
318.386
317.945
317.502
317.058
316.614
322.782
322.345
321.909
321.473
321.036
320.6
320.163
319.726
319.289
318.852
318.415
317.976
317.537
317.095
316.645
322.783
322.35
321.916
321.482
321.048
320.615
320.181
319.747
319.313
318.879
318.444
318.009
317.574
317.137
316.701
322.785
322.354
321.923
321.492
321.061
320.63
320.199
319.768
319.337
318.905
318.474
318.043
317.611
317.178
316.739
322.786
322.358
321.929
321.501
321.073
320.645
320.217
319.788
319.36
318.932
318.504
318.076
317.649
317.224
316.807
322.787
322.362
321.936
321.511
321.085
320.66
320.235
319.809
319.384
318.959
318.534
318.11
317.686
317.264
316.843
322.789
322.366
321.943
321.52
321.098
320.675
320.252
319.83
319.408
318.986
318.564
318.142
317.722
317.304
316.896
322.79
322.37
321.95
321.53
321.11
320.69
320.27
319.851
319.431
319.012
318.593
318.174
317.755
317.337
316.92
322.791
322.374
321.957
321.539
321.122
320.705
320.288
319.871
319.455
319.038
318.622
318.206
317.789
317.37
316.944
322.793
322.378
321.963
321.549
321.134
320.72
320.306
319.892
319.478
319.065
318.651
318.238
317.823
317.408
316.993
322.794
322.382
321.97
321.558
321.146
320.735
320.323
319.912
319.501
319.091
318.68
318.27
317.859
317.446
317.026
322.795
322.386
321.976
321.567
321.158
320.749
320.341
319.932
319.524
319.117
318.71
318.303
317.896
317.489
317.084
322.797
322.39
321.983
321.576
321.17
320.764
320.358
319.952
319.547
319.143
318.739
318.335
317.933
317.53
317.122
322.798
322.394
321.989
321.585
321.182
320.778
320.375
319.972
319.57
319.168
318.768
318.368
317.97
317.575
317.189
322.799
322.397
321.996
321.594
321.193
320.792
320.391
319.991
319.592
319.193
318.796
318.399
318.005
317.614
317.224
322.8
322.401
322.002
321.603
321.204
320.806
320.408
320.01
319.613
319.218
318.823
318.429
318.038
317.651
317.274
322.802
322.405
322.008
321.611
321.215
320.819
320.424
320.029
319.635
319.241
318.849
318.458
318.068
317.681
317.296
322.803
322.408
322.014
321.62
321.226
320.832
320.439
320.047
319.655
319.264
318.874
318.485
318.097
317.709
317.317
322.804
322.412
322.02
321.628
321.237
320.845
320.455
320.064
319.675
319.286
318.898
318.512
318.126
317.741
317.358
322.805
322.415
322.026
321.636
321.247
320.858
320.469
320.081
319.694
319.308
318.922
318.538
318.154
317.771
317.384
322.806
322.419
322.031
321.644
321.257
320.87
320.484
320.098
319.713
319.329
318.945
318.563
318.182
317.803
317.428
322.807
322.422
322.037
321.652
321.267
320.882
320.498
320.114
319.731
319.349
318.967
318.587
318.209
317.832
317.455
322.808
322.425
322.042
321.659
321.277
320.894
320.512
320.13
319.749
319.368
318.989
318.611
318.235
317.862
317.499
322.81
322.429
322.048
321.667
321.286
320.906
320.526
320.146
319.766
319.387
319.009
318.632
318.258
317.886
317.52
322.811
322.432
322.053
321.674
321.296
320.918
320.539
320.161
319.783
319.406
319.029
318.653
318.278
317.908
317.545
322.812
322.435
322.058
321.682
321.305
320.929
320.553
320.176
319.8
319.424
319.047
318.672
318.297
317.924
317.555
322.813
322.438
322.064
321.689
321.315
320.94
320.566
320.191
319.817
319.442
319.066
318.69
318.313
317.937
317.561
322.814
322.441
322.069
321.697
321.324
320.952
320.579
320.207
319.834
319.46
319.085
318.709
318.33
317.949
317.568
322.815
322.444
322.074
321.704
321.334
320.963
320.593
320.222
319.851
319.479
319.106
318.729
318.349
317.962
317.569
322.816
322.448
322.079
321.711
321.343
320.975
320.607
320.238
319.869
319.499
319.128
318.753
318.372
317.978
317.558
322.817
322.451
322.085
321.719
321.353
320.987
320.621
320.255
319.888
319.521
319.152
318.781
318.403
318.013
317.589
288.595
288.155
287.751
287.36
286.975
286.594
286.214
285.835
285.457
285.079
284.701
284.323
283.945
283.567
283.189
288.623
288.187
287.78
287.385
286.997
286.613
286.231
285.85
285.469
285.089
284.709
284.329
283.95
283.57
283.19
288.605
288.199
287.799
287.406
287.017
286.631
286.247
285.864
285.481
285.099
284.718
284.336
283.954
283.573
283.191
288.602
288.208
287.814
287.423
287.034
286.647
286.262
285.877
285.493
285.11
284.726
284.342
283.959
283.575
283.192
288.603
288.215
287.827
287.438
287.05
286.663
286.277
285.891
285.505
285.12
284.734
284.349
283.963
283.578
283.193
288.604
288.224
287.839
287.453
287.066
286.678
286.291
285.904
285.517
285.13
284.742
284.355
283.968
283.581
283.194
288.611
288.235
287.853
287.468
287.081
286.693
286.305
285.917
285.528
285.139
284.751
284.362
283.973
283.584
283.195
288.629
288.251
287.869
287.484
287.097
286.709
286.319
285.93
285.54
285.149
284.759
284.368
283.977
283.586
283.195
288.645
288.27
287.888
287.502
287.114
286.725
286.334
285.943
285.551
285.159
284.767
284.375
283.982
283.589
283.196
288.679
288.294
287.909
287.521
287.132
286.741
286.349
285.957
285.563
285.17
284.776
284.381
283.987
283.592
283.197
288.701
288.318
287.931
287.542
287.151
286.758
286.365
285.971
285.576
285.18
284.784
284.388
283.992
283.595
283.198
288.738
288.345
287.955
287.563
287.17
286.776
286.381
285.985
285.588
285.191
284.793
284.395
283.997
283.598
283.199
288.76
288.371
287.979
287.586
287.191
286.795
286.398
286
285.601
285.202
284.802
284.402
284.002
283.601
283.2
288.797
288.399
288.004
287.609
287.212
286.814
286.415
286.016
285.615
285.214
284.812
284.409
284.007
283.604
283.201
288.815
288.424
288.029
287.633
287.235
286.835
286.434
286.032
285.629
285.225
284.821
284.417
284.012
283.607
283.203
288.835
288.45
288.056
287.658
287.258
286.856
286.452
286.048
285.643
285.237
284.831
284.425
284.018
283.611
283.204
288.88
288.484
288.086
287.685
287.282
286.878
286.472
286.065
285.658
285.25
284.841
284.433
284.023
283.614
283.205
288.912
288.519
288.118
287.714
287.308
286.9
286.492
286.083
285.673
285.263
284.852
284.441
284.029
283.618
283.206
288.974
288.561
288.152
287.743
287.334
286.924
286.512
286.101
285.688
285.276
284.862
284.449
284.035
283.621
283.207
289.009
288.599
288.186
287.774
287.361
286.947
286.533
286.119
285.704
285.289
284.873
284.457
284.041
283.625
283.208
289.063
288.638
288.22
287.804
287.388
286.971
286.555
286.138
285.72
285.302
284.884
284.466
284.047
283.628
283.209
289.093
288.674
288.254
287.834
287.415
286.996
286.576
286.157
285.736
285.316
284.895
284.474
284.053
283.632
283.211
289.14
288.709
288.286
287.864
287.442
287.02
286.598
286.176
285.753
285.33
284.907
284.483
284.059
283.636
283.212
289.162
288.74
288.317
287.894
287.47
287.045
286.62
286.195
285.77
285.344
284.918
284.492
284.066
283.64
283.213
289.185
288.772
288.349
287.924
287.497
287.07
286.643
286.215
285.786
285.358
284.93
284.501
284.072
283.643
283.214
289.236
288.81
288.383
287.955
287.525
287.095
286.665
286.234
285.803
285.372
284.941
284.51
284.079
283.647
283.216
289.27
288.848
288.419
287.987
287.554
287.121
286.687
286.254
285.82
285.387
284.953
284.519
284.085
283.651
283.217
289.336
288.892
288.455
288.019
287.583
287.146
286.71
286.274
285.838
285.401
284.965
284.528
284.092
283.655
283.218
289.372
288.932
288.491
288.051
287.611
287.172
286.733
286.294
285.855
285.416
284.977
284.537
284.098
283.659
283.22
289.426
288.973
288.526
288.082
287.64
287.197
286.756
286.314
285.872
285.43
284.988
284.547
284.105
283.663
283.221
289.457
289.008
288.56
288.113
287.668
287.223
286.778
286.334
285.889
285.445
285
284.556
284.111
283.667
283.222
289.502
289.043
288.592
288.143
287.695
287.248
286.8
286.353
285.906
285.459
285.012
284.565
284.118
283.671
283.224
289.523
289.073
288.623
288.173
287.723
287.273
286.823
286.373
285.923
285.474
285.024
284.574
284.124
283.675
283.225
289.545
289.103
288.654
288.202
287.75
287.297
286.845
286.393
285.94
285.488
285.036
284.583
284.131
283.679
283.226
289.592
289.139
288.686
288.232
287.777
287.322
286.867
286.412
285.957
285.503
285.048
284.593
284.138
283.683
283.228
289.624
289.174
288.719
288.262
287.805
287.347
286.89
286.432
285.975
285.517
285.059
284.602
284.144
283.686
283.229
289.683
289.214
288.753