/*--------------------------------*- C++ -*----------------------------------*\
| =========                 |                                                 |
| \\      /  F ield         | OpenFOAM: The Open Source CFD Toolbox           |
|  \\    /   O peration     | Version:  5.x                                   |
|   \\  /    A nd           | Web:      www.OpenFOAM.org                      |
|    \\/     M anipulation  |                                                 |
\*---------------------------------------------------------------------------*/
FoamFile
{
    version     2.0;
    format      ascii;
    class       volScalarField;
    location    "0.7";
    object      gradTx;
}
// * * * * * * * * * * * * * * * * * * * * * * * * * * * * * * * * * * * * * //

dimensions      [0 -1 0 1 0 0 0];

internalField   nonuniform List<scalar> 
6300
(
-61.0563
-60.9823
-60.834
-60.6109
-60.3121
-59.9368
-59.4841
-58.9536
-58.3449
-57.6584
-56.8954
-56.0581
-55.1494
-54.1734
-53.1347
-61.1287
-61.055
-60.9073
-60.6849
-60.387
-60.0125
-59.5605
-59.0302
-58.4211
-57.7335
-56.9685
-56.1281
-55.2155
-54.235
-53.1914
-61.273
-61.1999
-61.0534
-60.8327
-60.5367
-60.1641
-59.7136
-59.184
-58.5744
-57.8847
-57.1155
-56.269
-55.3483
-54.3583
-53.3044
-61.4886
-61.4166
-61.2721
-61.0542
-60.7614
-60.3921
-59.9443
-59.4162
-58.8063
-58.1137
-57.3386
-56.4827
-55.5495
-54.5442
-53.474
-61.7745
-61.7041
-61.5626
-61.3488
-61.061
-60.6968
-60.2536
-59.7287
-59.1195
-58.4239
-57.6412
-56.7725
-55.8213
-54.794
-53.6996
-62.1291
-62.0608
-61.9236
-61.7158
-61.4352
-61.0788
-60.6431
-60.124
-59.5174
-58.8196
-58.0283
-57.1434
-56.168
-55.1098
-53.9808
-62.5501
-62.4848
-62.3533
-62.1538
-61.8835
-61.5385
-61.1143
-60.6051
-60.0049
-59.3075
-58.5078
-57.6033
-56.5963
-55.4954
-54.317
-63.0346
-62.9732
-62.8493
-62.6609
-62.4046
-62.0758
-61.6687
-61.1757
-60.5881
-59.8961
-59.0905
-58.1645
-57.1171
-55.9574
-54.7076
-63.5787
-63.5222
-63.408
-63.2339
-62.9963
-62.6898
-62.3073
-61.8393
-61.274
-60.5969
-59.7923
-58.8456
-57.7489
-56.5084
-55.1531
-64.1774
-64.1269
-64.0248
-63.8687
-63.655
-63.378
-63.0296
-62.5987
-62.07
-61.4235
-60.6345
-59.6754
-58.5231
-57.1728
-55.6585
-64.8246
-64.7812
-64.6935
-64.5593
-64.3752
-64.1356
-63.8326
-63.454
-62.9821
-62.3911
-61.645
-60.6967
-59.4937
-57.9999
-56.2404
-65.5132
-65.4779
-65.4067
-65.2979
-65.1488
-64.955
-64.7094
-64.4008
-64.0114
-63.512
-62.856
-61.9707
-60.7536
-59.0908
-56.946
-66.235
-66.2086
-66.1555
-66.0748
-65.9652
-65.8241
-65.6472
-65.4267
-65.1488
-64.7876
-64.2941
-63.5747
-62.4572
-60.6621
-57.9029
-66.981
-66.9638
-66.9297
-66.8787
-66.8111
-66.7271
-66.6265
-66.508
-66.3674
-66.1934
-65.956
-65.5748
-64.8365
-63.196
-59.5057
-67.7419
-67.7339
-67.7186
-67.697
-67.6714
-67.6448
-67.6218
-67.6092
-67.6171
-67.6604
-67.7592
-67.93
-68.1166
-67.778
-63.4555
-52.134
-51.1835
-50.1989
-49.1826
-48.1367
-47.063
-45.9634
-44.8395
-43.6935
-42.5278
-41.3454
-40.1497
-38.9448
-37.7351
-36.5253
-35.3201
-34.1242
-32.9423
-31.7788
-30.638
-29.5237
-28.4396
-27.3892
-26.3754
-25.401
-24.4682
-23.579
-22.7347
-21.9367
-21.1857
-20.4822
-19.8267
-19.219
-18.6592
-18.147
-17.6819
-17.2638
-16.8921
-16.5664
-16.2864
-16.0517
-15.8621
-15.7171
-15.6168
-15.5609
-15.5497
-15.5831
-15.6616
-15.7855
-15.9553
-16.1714
-16.4344
-16.7448
-17.1028
-17.5088
-17.963
-18.4653
-19.0158
-19.6141
-20.2599
-20.9525
-21.6912
-22.4752
-23.3035
-24.1748
-25.088
-26.0414
-27.0332
-28.0617
-29.1244
-30.2192
-31.3433
-32.4941
-33.6687
-34.8639
-36.0765
-37.303
-38.5398
-39.7831
-41.029
-42.2738
-43.5135
-44.7443
-45.9623
-47.1635
-48.3437
-49.4987
-50.6239
-51.7148
-52.7668
-52.1861
-51.2319
-50.2438
-49.2245
-48.176
-47.0999
-45.9978
-44.8711
-43.7217
-42.5518
-41.3644
-40.163
-38.9519
-37.7356
-36.519
-35.307
-34.1046
-32.9164
-31.7469
-30.6004
-29.4808
-28.392
-27.3372
-26.3197
-25.342
-24.4065
-23.5151
-22.6692
-21.87
-21.1182
-20.4144
-19.7588
-19.1513
-18.5919
-18.0801
-17.6157
-17.1981
-16.827
-16.5019
-16.2224
-15.9882
-15.7989
-15.6542
-15.5539
-15.498
-15.4865
-15.5195
-15.5974
-15.7207
-15.8897
-16.1052
-16.3675
-16.6773
-17.0349
-17.4406
-17.8948
-18.3973
-18.9481
-19.547
-20.1935
-20.8872
-21.6271
-22.4125
-23.2424
-24.1157
-25.031
-25.9869
-26.9815
-28.013
-29.0792
-30.1776
-31.3056
-32.4606
-33.6395
-34.8393
-36.0568
-37.2885
-38.5306
-39.7793
-41.0308
-42.281
-43.5262
-44.7625
-45.9862
-47.1932
-48.3795
-49.5408
-50.6725
-51.77
-52.8283
-52.2899
-51.3278
-50.3329
-49.3078
-48.2544
-47.1738
-46.0671
-44.9351
-43.7791
-42.601
-41.4035
-40.1905
-38.9666
-37.7367
-36.5063
-35.2807
-34.065
-32.8641
-31.6826
-30.5247
-29.3946
-28.296
-27.2326
-26.2074
-25.2233
-24.2824
-23.3868
-22.5376
-21.7361
-20.9829
-20.2784
-19.6227
-19.0157
-18.4571
-17.9464
-17.4831
-17.0668
-16.6969
-16.3729
-16.0945
-15.8612
-15.6727
-15.5285
-15.4285
-15.3725
-15.3604
-15.3926
-15.4693
-15.5912
-15.7587
-15.9727
-16.2337
-16.5423
-16.899
-17.3042
-17.7581
-18.2609
-18.8124
-19.4125
-20.0607
-20.7563
-21.4987
-22.287
-23.1201
-23.9971
-24.9167
-25.8775
-26.8777
-27.9155
-28.9884
-30.0941
-31.2299
-32.3931
-33.5807
-34.7899
-36.0172
-37.2592
-38.5121
-39.7718
-41.0342
-42.2954
-43.5515
-44.7987
-46.0335
-47.2521
-48.4507
-49.6248
-50.7697
-51.8804
-52.9516
-52.4445
-51.4702
-50.4648
-49.4313
-48.3711
-47.2849
-46.1725
-45.0335
-43.8681
-42.6777
-41.465
-40.234
-38.9899
-37.7389
-36.4871
-35.2405
-34.0046
-32.7845
-31.5848
-30.4098
-29.2636
-28.1504
-27.0737
-26.037
-25.0431
-24.0943
-23.1924
-22.3385
-21.5338
-20.7786
-20.0732
-19.4176
-18.8115
-18.2544
-17.7455
-17.2842
-16.8699
-16.5018
-16.1796
-15.9029
-15.6711
-15.4838
-15.3406
-15.241
-15.1849
-15.172
-15.2028
-15.2775
-15.3971
-15.5622
-15.7737
-16.0325
-16.3392
-16.6945
-17.0987
-17.5523
-18.0555
-18.6081
-19.21
-19.8606
-20.5594
-21.3054
-22.0978
-22.9358
-23.8182
-24.7442
-25.7123
-26.7209
-27.768
-28.8512
-29.968
-31.1154
-32.2909
-33.4916
-34.7147
-35.9569
-37.2147
-38.4839
-39.7604
-41.0395
-42.3171
-43.5892
-44.8525
-46.1037
-47.3396
-48.5565
-49.7501
-50.9154
-52.0468
-53.1381
-52.6483
-51.6563
-50.6365
-49.5923
-48.5248
-47.4333
-46.3157
-45.1694
-43.993
-42.7866
-41.5527
-40.2962
-39.0236
-37.7426
-36.4608
-35.1853
-33.922
-32.6761
-31.4521
-30.254
-29.0862
-27.9529
-26.8582
-25.8059
-24.799
-23.8397
-22.9297
-22.0699
-21.2611
-20.5036
-19.7974
-19.1425
-18.5381
-17.9834
-17.4774
-17.019
-16.6074
-16.242
-15.9222
-15.6477
-15.4181
-15.2328
-15.0911
-14.9923
-14.9361
-14.9221
-14.9508
-15.0226
-15.1386
-15.3
-15.508
-15.7635
-16.0675
-16.4206
-16.8235
-17.2765
-17.78
-18.334
-18.9384
-19.5925
-20.2955
-21.0464
-21.8443
-22.6883
-23.5778
-24.5119
-25.4897
-26.5096
-27.5695
-28.6667
-29.7983
-30.9614
-32.1531
-33.371
-34.6124
-35.8746
-37.1538
-38.4457
-39.7452
-41.0471
-42.3465
-43.6396
-44.9234
-46.1955
-47.4538
-48.6952
-49.9155
-51.1092
-52.2698
-53.3898
-52.8982
-51.8815
-50.8428
-49.7863
-48.7127
-47.619
-46.4997
-45.3486
-44.1609
-42.935
-41.6731
-40.3815
-39.0695
-37.7476
-36.4258
-35.1129
-33.815
-32.537
-31.2825
-30.0553
-28.8597
-27.7005
-26.5826
-25.5104
-24.4872
-23.5152
-22.5956
-21.729
-20.9156
-20.1557
-19.4492
-18.7957
-18.1943
-17.6435
-17.1418
-16.6876
-16.2797
-15.9175
-15.6008
-15.3292
-15.1026
-14.9201
-14.7809
-14.6837
-14.6276
-14.6122
-14.6378
-14.7052
-14.8161
-14.9721
-15.1749
-15.426
-15.7262
-16.0764
-16.4772
-16.9292
-17.433
-17.9887
-18.5963
-19.2551
-19.9637
-20.7209
-21.5254
-22.3766
-23.2741
-24.2179
-25.2075
-26.2416
-27.3181
-28.4335
-29.5842
-30.7667
-31.9783
-33.2169
-34.4809
-35.7681
-37.0751
-38.3968
-39.7267
-41.0581
-42.385
-43.7032
-45.0107
-46.307
-47.5918
-48.8636
-50.1184
-51.35
-52.5502
-53.7095
-53.1893
-52.1376
-51.0738
-50.0043
-48.9289
-47.8411
-46.7292
-45.5803
-44.3839
-43.1351
-41.8363
-40.4965
-39.13
-37.7526
-36.3787
-35.0191
-33.68
-32.3646
-31.0743
-29.8119
-28.5817
-27.3896
-26.2421
-25.1451
-24.1026
-23.1163
-22.1864
-21.3125
-20.4943
-19.7319
-19.0256
-18.375
-17.7786
-17.2342
-16.739
-16.2906
-15.8874
-15.5289
-15.2154
-14.9473
-14.7246
-14.5466
-14.4114
-14.3171
-14.2618
-14.2446
-14.2657
-14.3266
-14.4298
-14.578
-14.7737
-15.0187
-15.3142
-15.6606
-16.0585
-16.5087
-17.0122
-17.57
-18.1819
-18.847
-19.5632
-20.3283
-21.1406
-21.9992
-22.9049
-23.8588
-24.862
-25.9138
-27.0114
-28.1503
-29.325
-30.5309
-31.7651
-33.0268
-34.3163
-35.6335
-36.9756
-38.3362
-39.7063
-41.0757
-42.4358
-43.782
-45.1139
-46.4347
-47.7482
-49.0557
-50.3541
-51.6354
-52.8886
-54.1008
-53.5132
-52.4105
-51.3123
-50.2299
-49.1627
-48.0974
-47.0116
-45.8802
-44.6823
-43.4075
-42.0584
-40.6502
-39.2064
-37.7528
-36.3114
-34.8962
-33.5118
-32.1564
-30.8268
-29.523
-28.2496
-27.0152
-25.8299
-24.7024
-23.6379
-22.637
-21.6975
-20.8168
-19.9936
-19.2286
-18.5231
-17.8773
-17.2893
-16.7551
-16.27
-15.8297
-15.432
-15.0768
-14.7658
-14.5011
-14.2837
-14.1124
-13.9843
-13.8955
-13.8424
-13.823
-13.8374
-13.8884
-13.9799
-14.1166
-14.3026
-14.5402
-14.8301
-15.1719
-15.5656
-16.0125
-16.5147
-17.0743
-17.6921
-18.3664
-19.0935
-19.8691
-20.69
-21.5553
-22.4672
-23.43
-24.4476
-25.5209
-26.6463
-27.8163
-29.0217
-30.2552
-31.5132
-32.7973
-34.1125
-35.4635
-36.8495
-38.2623
-39.6871
-41.1065
-42.5067
-43.8811
-45.2327
-46.5724
-47.9126
-49.2604
-50.6135
-51.9606
-53.2851
-54.5689
-53.8569
-52.6758
-51.5273
-50.4328
-49.3929
-48.3828
-47.3595
-46.2754
-45.0914
-43.7868
-42.3658
-40.8555
-39.2973
-37.7357
-36.2068
-34.7295
-33.3023
-31.9116
-30.5431
-29.1912
-27.8623
-26.5709
-25.3352
-24.1702
-23.0828
-22.0705
-21.1252
-20.2393
-19.4102
-18.6407
-17.9357
-17.2977
-16.7238
-16.2067
-15.7375
-15.3087
-14.9166
-14.5623
-14.2508
-13.9881
-13.7775
-13.6173
-13.5019
-13.4237
-13.3757
-13.3538
-13.358
-13.3929
-13.4661
-13.5857
-13.7585
-13.9876
-14.2723
-14.6096
-14.9975
-15.4379
-15.9356
-16.4962
-17.1222
-17.811
-18.5551
-19.3459
-20.1766
-21.0453
-21.9574
-22.9234
-23.954
-25.0541
-26.218
-27.4321
-28.6791
-29.945
-31.2244
-32.5236
-33.858
-35.2435
-36.6855
-38.1717
-39.6755
-41.1653
-42.6148
-44.0127
-45.3686
-46.7092
-48.0655
-49.457
-50.8808
-52.3173
-53.7396
-55.1211
-54.2004
-52.8929
-51.6637
-50.556
-49.5794
-48.6863
-47.7941
-46.8142
-45.6738
-44.3338
-42.8019
-41.13
-39.3936
-37.6721
-36.0286
-34.4912
-33.0412
-31.6357
-30.2362
-28.8275
-27.4216
-26.0476
-24.74
-23.5272
-22.4207
-21.4088
-20.4685
-19.5812
-18.7422
-17.9611
-17.253
-16.6269
-16.0777
-15.5906
-15.1482
-14.7363
-14.348
-13.9873
-13.6669
-13.4014
-13.1999
-13.059
-12.9673
-12.9098
-12.8729
-12.8481
-12.8356
-12.8439
-12.8867
-12.9794
-13.1344
-13.3565
-13.6402
-13.9754
-14.3553
-14.7821
-15.2673
-15.825
-16.4634
-17.177
-17.9509
-18.7667
-19.6096
-20.4743
-21.3714
-22.3249
-23.3617
-24.4964
-25.7188
-27.0015
-28.3102
-29.6164
-30.908
-32.1999
-33.5305
-34.9428
-36.4583
-38.0559
-39.6846
-41.2823
-42.797
-44.2047
-45.5262
-46.8229
-48.1675
-49.6063
-51.1293
-52.6936
-54.2516
-55.7672
-54.5143
-52.9961
-51.6243
-50.4899
-49.6453
-48.9879
-48.3547
-47.5835
-46.5436
-45.157
-43.4397
-41.4977
-39.4687
-37.4964
-35.6983
-34.128
-32.7165
-31.3522
-29.9434
-28.4605
-26.9363
-25.4297
-24.0093
-22.7322
-21.6237
-20.6449
-19.7368
-18.8549
-17.9919
-17.1778
-16.4534
-15.8467
-15.3436
-14.9115
-14.5163
-14.1309
-13.7411
-13.3557
-13.005
-12.7241
-12.5361
-12.4314
-12.3848
-12.3675
-12.3539
-12.3262
-12.2845
-12.2463
-12.2369
-12.2847
-12.4148
-12.638
-12.9352
-13.2784
-13.6468
-14.0436
-14.4957
-15.039
-15.6974
-16.4577
-17.2878
-18.15
-19.0123
-19.858
-20.7053
-21.6076
-22.6297
-23.8134
-25.1342
-26.5346
-27.9462
-29.3097
-30.5921
-31.8215
-33.0861
-34.4941
-36.1133
-37.896
-39.7385
-41.5192
-43.1334
-44.5207
-45.7195
-46.867
-48.1335
-49.6336
-51.3176
-53.0779
-54.8235
-56.5182
-54.7517
-52.8874
-51.2423
-50.0059
-49.4413
-49.255
-49.114
-48.7398
-47.9125
-46.4567
-44.4015
-41.9911
-39.4624
-37.0707
-35.0406
-33.5366
-32.3247
-31.1335
-29.7584
-28.1543
-26.4263
-24.6889
-23.0733
-21.6956
-20.6409
-19.7804
-18.9687
-18.1023
-17.1727
-16.2663
-15.4855
-14.9184
-14.5084
-14.1804
-13.8717
-13.533
-13.1292
-12.6754
-12.2437
-11.9141
-11.7535
-11.7212
-11.7612
-11.8213
-11.8563
-11.8258
-11.7297
-11.6083
-11.5058
-11.4728
-11.5624
-11.8139
-12.1654
-12.5461
-12.8986
-13.2266
-13.5941
-14.0883
-14.7862
-15.639
-16.5795
-17.5345
-18.4405
-19.2405
-19.9612
-20.7191
-21.6663
-22.9342
-24.436
-26.0527
-27.6525
-29.1207
-30.3536
-31.393
-32.4362
-33.742
-35.5331
-37.6506
-39.8815
-41.996
-43.7967
-45.1079
-45.9864
-46.7395
-47.7623
-49.3953
-51.3951
-53.4823
-55.4672
-57.3694
-54.7964
-52.462
-50.2708
-48.5532
-48.6914
-49.4555
-50.2084
-50.5484
-50.1863
-48.6196
-45.8749
-42.6551
-39.2597
-36.1246
-33.6261
-32.5257
-31.9039
-31.1809
-29.904
-28.0276
-25.9312
-23.7741
-21.7961
-20.1951
-19.3796
-18.8473
-18.2804
-17.4421
-16.3214
-15.1754
-14.211
-13.7655
-13.5563
-13.423
-13.2714
-13.0302
-12.5906
-11.9647
-11.3369
-10.862
-10.7876
-10.9081
-11.1102
-11.3125
-11.4544
-11.4212
-11.2125
-10.9447
-10.6759
-10.4857
-10.4783
-10.847
-11.3551
-11.8555
-12.1871
-12.3542
-12.5112
-12.8456
-13.6535
-14.6952
-15.852
-16.991
-18.0227
-18.7386
-19.1652
-19.5595
-20.2424
-21.7198
-23.5735
-25.5966
-27.5494
-29.2718
-30.3951
-30.9602
-31.4089
-32.2917
-34.484
-37.2425
-40.1924
-42.9249
-45.1652
-46.3182
-46.4337
-46.2233
-46.5121
-48.6278
-51.3461
-54.0329
-56.229
-58.2034
-54.1137
-51.8291
-48.6156
-44.4276
-47.0401
-49.6719
-51.8973
-53.3679
-54.1946
-52.4791
-48.0328
-43.5724
-38.6825
-34.2627
-30.1989
-30.8265
-31.63
-32.0272
-30.9141
-28.2192
-25.5246
-22.6024
-19.9772
-17.5649
-17.7115
-17.9652
-17.9843
-17.1899
-15.5081
-13.824
-12.1908
-12.2733
-12.4962
-12.6933
-12.8017
-12.8142
-12.3218
-11.258
-10.211
-9.2343
-9.54234
-9.97862
-10.4604
-10.8919
-11.3059
-11.2707
-10.7819
-10.2835
-9.73414
-9.23662
-8.85391
-9.68043
-10.5569
-11.4092
-11.7138
-11.4977
-11.1742
-10.9222
-12.1855
-13.5869
-15.1515
-16.6036
-18.0613
-18.6548
-18.4171
-17.9856
-17.6756
-19.965
-22.4683
-25.2432
-27.7796
-30.2869
-31.2415
-30.696
-29.7576
-28.9567
-32.6199
-36.5594
-40.817
-44.5629
-48.0994
-49.0226
-47.3499
-44.9878
-42.6307
-46.9919
-51.3415
-55.2888
-57.3092
-58.2816
-49.4709
-52.5327
-48.3634
-30.5085
-45.36
-50.4732
-54.6727
-57.1144
-61.8636
-60.2713
-50.2116
-45.1086
-37.429
-31.8891
-20.0168
-28.8752
-31.9422
-35.0498
-34.2032
-28.412
-25.4474
-21.0044
-17.853
-11.2508
-15.8907
-17.4225
-18.8613
-18.217
-14.6993
-12.4006
-7.70107
-10.5802
-11.4746
-12.0926
-12.4717
-13.3267
-12.8771
-10.5285
-8.98497
-5.75773
-8.11359
-8.98491
-9.8841
-10.498
-11.8058
-11.775
-10.3663
-9.697
-8.719
-7.82329
-5.48925
-8.44311
-9.79502
-11.7529
-11.9917
-10.7974
-9.73538
-6.81785
-10.5199
-12.2451
-14.6145
-16.2098
-19.3461
-19.7695
-17.9499
-16.238
-11.3671
-17.9036
-20.9736
-25.2348
-28.0532
-33.5394
-34.2494
-30.9992
-27.9093
-19.1943
-30.3589
-35.4187
-42.1791
-46.503
-54.7969
-55.4652
-49.2589
-43.7446
-29.0746
-45.3718
-51.9155
-59.3179
-59.8967
-53.4541
-53.8713
-55.0129
-56.0794
-57.0659
-57.9688
-58.7859
-59.5162
-60.1598
-60.7178
-61.1914
-61.5824
-61.8927
-62.1238
-62.277
-62.3534
-53.9392
-55.0868
-56.1582
-57.1482
-58.0533
-58.8712
-59.6014
-60.244
-60.8005
-61.2723
-61.6616
-61.9702
-62.1999
-62.3522
-62.4281
-54.0756
-55.2358
-56.3171
-57.3142
-58.2234
-59.0429
-59.7724
-60.4129
-60.9661
-61.4342
-61.8197
-62.1248
-62.3518
-62.5021
-62.577
-54.2827
-55.4624
-56.559
-57.5667
-58.4819
-59.3032
-60.0311
-60.6675
-61.2151
-61.677
-62.0564
-62.356
-62.5785
-62.7257
-62.7989
-54.5637
-55.7708
-56.8886
-57.9104
-58.8328
-59.6553
-60.3797
-61.0093
-61.5483
-62.0008
-62.3711
-62.6627
-62.8787
-63.0214
-63.0924
-54.9232
-56.1674
-57.3129
-58.3522
-59.2823
-60.1042
-60.8217
-61.4404
-61.9662
-62.4052
-62.7627
-63.0432
-63.2505
-63.3872
-63.455
-55.3681
-56.6614
-57.8423
-58.902
-59.8386
-60.656
-61.3612
-61.9627
-62.4694
-62.8894
-63.2295
-63.4953
-63.691
-63.8198
-63.8837
-55.9086
-57.2667
-58.4916
-59.5734
-60.5128
-61.3184
-62.0026
-62.5783
-63.0579
-63.452
-63.769
-64.0156
-64.1966
-64.3155
-64.3744
-56.5594
-58.0037
-59.2827
-60.3855
-61.319
-62.1006
-62.7507
-63.2884
-63.7304
-64.09
-64.3773
-64.5997
-64.7626
-64.8693
-64.9221
-57.3429
-58.9046
-60.2484
-61.3652
-62.2754
-63.0124
-63.609
-64.0923
-64.4836
-64.7986
-65.0488
-65.2418
-65.3827
-65.475
-65.5207
-58.2934
-60.0217
-61.4396
-62.5497
-63.4038
-64.0629
-64.5782
-64.9859
-65.311
-65.5705
-65.7758
-65.934
-66.0496
-66.1253
-66.1628
-59.4638
-61.4482
-62.9371
-63.9884
-64.7258
-65.2564
-65.6532
-65.9597
-66.2018
-66.3949
-66.5482
-66.667
-66.7544
-66.8119
-66.8405
-60.9435
-63.3683
-64.8707
-65.7382
-66.2523
-66.5823
-66.8163
-66.9956
-67.1394
-67.2571
-67.3533
-67.4297
-67.487
-67.5253
-67.5445
-62.9951
-66.2085
-67.4375
-67.8395
-67.9608
-68.003
-68.0321
-68.0643
-68.1007
-68.139
-68.1763
-68.2096
-68.2367
-68.2558
-68.2656
-67.0848
-71.0317
-70.8295
-70.2185
-69.7462
-69.4355
-69.2425
-69.126
-69.0577
-69.02
-69.0013
-68.9939
-68.9924
-68.9932
-68.9942
-68.4447
-68.4446
-68.4453
-68.449
-68.459
-68.4807
-68.5226
-68.5977
-68.728
-68.9519
-69.3442
-70.0724
-71.6032
-75.6279
-89.8707
-69.0821
-69.0885
-69.1025
-69.1267
-69.1653
-69.2253
-69.3168
-69.4564
-69.671
-70.0073
-70.5503
-71.4612
-73.039
-75.6664
-78.0831
-69.7134
-69.7254
-69.751
-69.7927
-69.8555
-69.9463
-70.0761
-70.2612
-70.5276
-70.9174
-71.4997
-72.3856
-73.7435
-75.849
-79.8585
-70.3346
-70.3514
-70.3866
-70.4428
-70.5246
-70.6388
-70.7952
-71.0075
-71.2964
-71.692
-72.2369
-72.9806
-73.9268
-74.7075
-72.5813
-70.9423
-70.9631
-71.0059
-71.0734
-71.1697
-71.3005
-71.4735
-71.6987
-71.9891
-72.3611
-72.8344
-73.4331
-74.2228
-75.5827
-79.9784
-71.5339
-71.5577
-71.6065
-71.6826
-71.7893
-71.9313
-72.1138
-72.3425
-72.623
-72.9583
-73.3432
-73.751
-74.121
-74.3474
-74.3274
-72.1071
-72.1332
-72.1865
-72.2688
-72.3829
-72.5322
-72.7199
-72.9482
-73.217
-73.5198
-73.8338
-74.0931
-74.117
-73.281
-68.6882
-72.6603
-72.6882
-72.7447
-72.8314
-72.9506
-73.1047
-73.2956
-73.5234
-73.7854
-74.0722
-74.3603
-74.5967
-74.7084
-74.8213
-77.2736
-73.1923
-73.2214
-73.2801
-73.3699
-73.4926
-73.65
-73.8434
-74.0724
-74.3345
-74.6226
-74.9205
-75.1847
-75.2971
-74.7347
-70.2005
-73.7023
-73.7321
-73.7923
-73.8841
-74.0089
-74.1685
-74.3641
-74.5959
-74.8632
-75.1653
-75.5017
-75.8758
-76.3529
-77.4039
-82.2918
-74.1896
-74.2198
-74.2808
-74.3736
-74.4996
-74.6604
-74.8575
-75.092
-75.3657
-75.6832
-76.0544
-76.493
-77.0085
-77.4059
-75.519
-74.654
-74.6843
-74.7455
-74.8385
-74.9645
-75.1253
-75.3225
-75.5581
-75.8354
-76.1628
-76.558
-77.0542
-77.7444
-78.9917
-82.9377
-75.0953
-75.1255
-75.1864
-75.2787
-75.4038
-75.5633
-75.7588
-75.9924
-76.2679
-76.5943
-76.9892
-77.4783
-78.0916
-78.7007
-77.6508
-75.5136
-75.5435
-75.6035
-75.6946
-75.8178
-75.9745
-76.1662
-76.3947
-76.6627
-76.9774
-77.3527
-77.8137
-78.44
-79.5591
-82.8967
-75.9092
-75.9385
-75.9973
-76.0864
-76.2068
-76.3597
-76.546
-76.7666
-77.0228
-77.3173
-77.6543
-78.0318
-78.4444
-78.8743
-79.2554
-76.2824
-76.3109
-76.3682
-76.4549
-76.5718
-76.7198
-76.8996
-77.111
-77.3537
-77.6268
-77.9253
-78.223
-78.4351
-78.2207
-75.9073
-76.6338
-76.6614
-76.7169
-76.8007
-76.9136
-77.0562
-77.2288
-77.4309
-77.6612
-77.9176
-78.1945
-78.4712
-78.7201
-79.0222
-80.6498
-76.9639
-76.9905
-77.044
-77.1246
-77.2331
-77.37
-77.5353
-77.7284
-77.9481
-78.1933
-78.4615
-78.7361
-78.9666
-78.9006
-76.8829
-77.2735
-77.299
-77.3503
-77.4276
-77.5314
-77.6622
-77.8201
-78.0044
-78.2147
-78.4523
-78.7215
-79.029
-79.4173
-80.1318
-82.7638
-77.5632
-77.5876
-77.6366
-77.7103
-77.8094
-77.934
-78.0841
-78.2595
-78.46
-78.6884
-78.9526
-79.2632
-79.64
-80.0287
-79.4813
-77.834
-77.8572
-77.9037
-77.9739
-78.0679
-78.1862
-78.3284
-78.4942
-78.6834
-78.8989
-79.149
-79.4489
-79.8528
-80.573
-82.6561
-78.0864
-78.1085
-78.1526
-78.2191
-78.3082
-78.4199
-78.554
-78.7096
-78.886
-79.0844
-79.3085
-79.5598
-79.8442
-80.1683
-80.4978
-78.3215
-78.3423
-78.3841
-78.4469
-78.531
-78.6363
-78.7623
-78.9078
-79.071
-79.2511
-79.4468
-79.6451
-79.8065
-79.7574
-78.5971
-78.54
-78.5596
-78.5991
-78.6583
-78.7376
-78.8366
-78.9548
-79.0906
-79.2417
-79.4062
-79.5809
-79.7537
-79.9132
-80.1157
-81.0576
-78.7427
-78.7612
-78.7983
-78.8541
-78.9287
-79.0218
-79.1328
-79.2599
-79.4008
-79.5532
-79.7139
-79.8689
-79.9885
-79.958
-79.0627
-78.9304
-78.9478
-78.9827
-79.0352
-79.1053
-79.1929
-79.2972
-79.4167
-79.5494
-79.6937
-79.8485
-80.0062
-80.1663
-80.3985
-81.3602
-79.1038
-79.1202
-79.153
-79.2023
-79.2682
-79.3506
-79.4488
-79.5616
-79.6874
-79.8261
-79.9786
-80.1395
-80.2925
-80.3299
-79.4686
-79.2638
-79.2791
-79.3099
-79.3562
-79.4181
-79.4955
-79.5879
-79.6944
-79.8141
-79.948
-80.1006
-80.2759
-80.4973
-80.8829
-82.1668
-79.411
-79.4254
-79.4542
-79.4975
-79.5555
-79.6281
-79.715
-79.8153
-79.9284
-80.0563
-80.2044
-80.3777
-80.5867
-80.8096
-80.6255
-79.546
-79.5595
-79.5864
-79.627
-79.6812
-79.7492
-79.8305
-79.9243
-80.03
-80.1496
-80.2884
-80.4522
-80.6648
-81.0165
-81.9496
-79.6697
-79.6822
-79.7074
-79.7452
-79.7958
-79.8592
-79.9349
-80.0221
-80.1197
-80.2288
-80.3526
-80.4905
-80.6448
-80.8174
-80.9849
-79.7824
-79.7941
-79.8176
-79.8528
-79.9
-79.959
-80.0292
-80.1097
-80.199
-80.2971
-80.4047
-80.515
-80.6107
-80.6192
-80.1648
-79.885
-79.8959
-79.9177
-79.9505
-79.9943
-80.0491
-80.1142
-80.1883
-80.2697
-80.3579
-80.4526
-80.5471
-80.6357
-80.74
-81.1349
-79.9779
-79.988
-80.0083
-80.0388
-80.0795
-80.1303
-80.1906
-80.2589
-80.3334
-80.4134
-80.4983
-80.5808
-80.6484
-80.6567
-80.3295
-80.0616
-80.071
-80.0899
-80.1182
-80.1561
-80.2033
-80.2591
-80.3223
-80.391
-80.4646
-80.5435
-80.6226
-80.7007
-80.8041
-81.178
-80.1367
-80.1455
-80.163
-80.1894
-80.2246
-80.2685
-80.3204
-80.379
-80.4428
-80.5115
-80.5861
-80.6626
-80.7339
-80.7613
-80.4608
-80.2036
-80.2118
-80.2281
-80.2527
-80.2855
-80.3264
-80.3747
-80.4293
-80.4887
-80.5534
-80.6253
-80.7038
-80.7961
-80.9438
-81.4051
-80.2628
-80.2704
-80.2856
-80.3086
-80.3392
-80.3773
-80.4225
-80.4733
-80.5288
-80.5893
-80.6576
-80.733
-80.8184
-80.9064
-80.855
-80.3145
-80.3217
-80.3359
-80.3574
-80.3861
-80.4218
-80.4639
-80.5114
-80.563
-80.6192
-80.6826
-80.7531
-80.8372
-80.9634
-81.2695
-80.3593
-80.366
-80.3794
-80.3995
-80.4265
-80.46
-80.4995
-80.5438
-80.5916
-80.6432
-80.7005
-80.7613
-80.8255
-80.8931
-80.9516
-80.3973
-80.4036
-80.4163
-80.4353
-80.4607
-80.4923
-80.5295
-80.5709
-80.6153
-80.6625
-80.7137
-80.7648
-80.8099
-80.8268
-80.7018
-80.4288
-80.4348
-80.4468
-80.4649
-80.4891
-80.5191
-80.5542
-80.5933
-80.6346
-80.6781
-80.7247
-80.7702
-80.8124
-80.8568
-80.9747
-80.454
-80.4598
-80.4714
-80.4887
-80.5118
-80.5405
-80.5741
-80.6112
-80.6502
-80.6909
-80.734
-80.7757
-80.812
-80.8333
-80.7751
-80.4732
-80.4788
-80.49
-80.5067
-80.5291
-80.5568
-80.5892
-80.6249
-80.6623
-80.7011
-80.7423
-80.7824
-80.8205
-80.8627
-80.957
-80.4864
-80.4919
-80.5028
-80.5192
-80.5411
-80.5682
-80.5999
-80.6347
-80.6711
-80.7088
-80.749
-80.7882
-80.8246
-80.8537
-80.8374
-80.4937
-80.4991
-80.51
-80.5262
-80.5479
-80.5747
-80.6061
-80.6405
-80.6766
-80.714
-80.7541
-80.7938
-80.8323
-80.874
-80.9415
-80.4952
-80.5007
-80.5115
-80.5278
-80.5495
-80.5764
-80.6078
-80.6425
-80.6788
-80.7167
-80.7573
-80.7977
-80.8364
-80.874
-80.9123
-80.4909
-80.4964
-80.5074
-80.5239
-80.5459
-80.5733
-80.6052
-80.6404
-80.6776
-80.7165
-80.7585
-80.8004
-80.8398
-80.8713
-80.8692
-80.4806
-80.4863
-80.4976
-80.5145
-80.5371
-80.5652
-80.598
-80.6343
-80.6728
-80.7134
-80.7576
-80.8026
-80.8471
-80.8897
-80.9199
-80.4644
-80.4702
-80.4819
-80.4995
-80.5229
-80.552
-80.5861
-80.624
-80.6642
-80.707
-80.7539
-80.8029
-80.8542
-80.9145
-81.019
-80.442
-80.4481
-80.4604
-80.4788
-80.5033
-80.5337
-80.5694
-80.6091
-80.6515
-80.6968
-80.7466
-80.7991
-80.8537
-80.9062
-80.9007
-80.4133
-80.4197
-80.4327
-80.452
-80.4779
-80.51
-80.5477
-80.5897
-80.6346
-80.6825
-80.7353
-80.7914
-80.8533
-80.936
-81.1233
-80.378
-80.3849
-80.3986
-80.4192
-80.4466
-80.4807
-80.5207
-80.5654
-80.6132
-80.6641
-80.7196
-80.7773
-80.8368
-80.8909
-80.8409
-80.3359
-80.3432
-80.3579
-80.3798
-80.4091
-80.4455
-80.4883
-80.5361
-80.5873
-80.6416
-80.7
-80.7596
-80.8228
-80.9157
-81.2139
-80.2866
-80.2945
-80.3102
-80.3337
-80.3651
-80.4042
-80.4502
-80.5017
-80.557
-80.6155
-80.6773
-80.737
-80.7865
-80.7957
-80.5718
-80.2299
-80.2383
-80.2551
-80.2804
-80.3142
-80.3563
-80.406
-80.4618
-80.5221
-80.5862
-80.6539
-80.7193
-80.7767
-80.8353
-81.0516
-80.1651
-80.1742
-80.1923
-80.2196
-80.256
-80.3014
-80.3552
-80.416
-80.4823
-80.5536
-80.6299
-80.7046
-80.7646
-80.7632
-80.4756
-80.092
-80.1018
-80.1213
-80.1507
-80.19
-80.239
-80.2973
-80.3636
-80.4367
-80.5166
-80.6047
-80.6979
-80.7935
-80.8874
-80.9612
-80.01
-80.0205
-80.0416
-80.0732
-80.1156
-80.1685
-80.2315
-80.3037
-80.3839
-80.473
-80.5738
-80.6871
-80.8223
-81.0232
-81.5258
-79.9187
-79.9299
-79.9526
-79.9866
-80.0322
-80.0892
-80.1572
-80.2353
-80.3227
-80.4203
-80.532
-80.6588
-80.8038
-80.947
-80.8373
-79.8173
-79.8295
-79.8538
-79.8903
-79.9393
-80.0005
-80.0737
-80.1577
-80.2518
-80.3572
-80.4775
-80.6155
-80.785
-81.0441
-81.7305
-79.7055
-79.7185
-79.7445
-79.7837
-79.8362
-79.9018
-79.9802
-80.0703
-80.1709
-80.2827
-80.4084
-80.5479
-80.7025
-80.8422
-80.6065
-79.5826
-79.5965
-79.6243
-79.6662
-79.7223
-79.7926
-79.8764
-79.9727
-80.0798
-80.1977
-80.3274
-80.4673
-80.6288
-80.8986
-81.8686
-79.4479
-79.4627
-79.4924
-79.5372
-79.5971
-79.6721
-79.7617
-79.8646
-79.979
-80.1036
-80.2371
-80.3694
-80.4783
-80.4665
-79.7127
-79.3007
-79.3165
-79.3482
-79.3959
-79.4597
-79.5398
-79.6355
-79.7457
-79.8685
-80.0025
-80.1453
-80.2855
-80.4099
-80.5473
-81.1812
-79.1406
-79.1573
-79.1909
-79.2416
-79.3095
-79.3948
-79.497
-79.6152
-79.748
-79.8945
-80.0529
-80.2101
-80.3309
-80.281
-79.4079
-78.9666
-78.9844
-79.02
-79.0736
-79.1456
-79.2362
-79.3451
-79.4718
-79.6155
-79.7772
-79.9589
-80.1575
-80.3689
-80.5838
-80.7669
-78.7783
-78.797
-78.8346
-78.8912
-78.9673
-79.0631
-79.1786
-79.3135
-79.4682
-79.6452
-79.851
-80.0935
-80.4028
-80.9063
-82.2814
-78.5748
-78.5945
-78.634
-78.6937
-78.7737
-78.8745
-78.9962
-79.1388
-79.3029
-79.4923
-79.7152
-79.9807
-80.3002
-80.621
-80.2657
-78.3555
-78.3762
-78.4177
-78.4802
-78.564
-78.6696
-78.7971
-78.9462
-79.1177
-79.3152
-79.5476
-79.8278
-80.1952
-80.8029
-82.5454
-78.1198
-78.1414
-78.1848
-78.2501
-78.3377
-78.4479
-78.5805
-78.7352
-78.9119
-79.1129
-79.3445
-79.612
-79.9216
-80.1942
-79.5034
-77.867
-77.8895
-77.9348
-78.0029
-78.0942
-78.2087
-78.3464
-78.5061
-78.6868
-78.8887
-79.1139
-79.3645
-79.672
-80.252
-82.5707
-77.5964
-77.6199
-77.667
-77.7379
-77.8328
-77.9519
-78.0945
-78.2595
-78.4445
-78.6472
-78.8634
-79.0749
-79.2315
-79.0997
-77.1719
-77.3074
-77.3318
-77.3808
-77.4545
-77.5531
-77.6768
-77.8249
-77.996
-78.1874
-78.3956
-78.6139
-78.8208
-78.9897
-79.1921
-80.568
-76.9994
-77.0248
-77.0755
-77.152
-77.2545
-77.383
-77.5371
-77.7156
-77.9161
-78.1362
-78.3697
-78.5907
-78.723
-78.467
-76.3514
-76.6717
-76.698
-76.7506
-76.8299
-76.9362
-77.0696
-77.2301
-77.4169
-77.6289
-77.8667
-78.1318
-78.4198
-78.7242
-79.0307
-79.2911
-76.3238
-76.3509
-76.4053
-76.4873
-76.5974
-76.7358
-76.9027
-77.0977
-77.3213
-77.5772
-77.8755
-78.2348
-78.7224
-79.6237
-82.4403
-75.955
-75.9829
-76.039
-76.1236
-76.2373
-76.3805
-76.5533
-76.7558
-76.9888
-77.2575
-77.5745
-77.9582
-78.4317
-78.8841
-77.9
-75.5647
-75.5934
-75.651
-75.7381
-75.8552
-76.0029
-76.1812
-76.3898
-76.6291
-76.9034
-77.2248
-77.6167
-78.1538
-79.1395
-82.3785
-75.1525
-75.1818
-75.2408
-75.3301
-75.4504
-75.6023
-75.7857
-75.9996
-76.2427
-76.5158
-76.8236
-77.1719
-77.5628
-77.8275
-76.1532
-74.7178
-74.7477
-74.8078
-74.899
-75.0222
-75.1782
-75.3667
-75.5862
-75.8332
-76.1033
-76.392
-76.6949
-77.0577
-77.8594
-81.7746
-74.2605
-74.2907
-74.3515
-74.4441
-74.5697
-74.7297
-74.9241
-75.151
-75.4052
-75.6771
-75.9482
-76.1738
-76.2461
-75.7265
-71.9188
-73.7803
-73.8104
-73.8713
-73.9645
-74.092
-74.2557
-74.4567
-74.6939
-74.9624
-75.2507
-75.5338
-75.7566
-75.8441
-75.8745
-77.67
-73.2773
-73.3069
-73.367
-73.4597
-73.5876
-73.7541
-73.9619
-74.2124
-74.5037
-74.8272
-75.1588
-75.4311
-75.48
-74.7943
-71.1209
-72.7519
-72.7803
-72.8385
-72.9288
-73.0551
-73.2221
-73.4353
-73.6999
-74.0202
-74.3973
-74.8226
-75.2583
-75.6245
-75.7865
-75.6216
-72.2048
-72.2313
-72.2859
-72.3715
-72.4929
-72.6565
-72.8708
-73.146
-73.4949
-73.9333
-74.477
-75.1313
-75.9093
-77.0034
-80.034
-71.6374
-71.6611
-71.7101
-71.7879
-71.8999
-72.0542
-72.2619
-72.5383
-72.9053
-73.3954
-74.0524
-74.9162
-75.973
-76.8728
-75.4802
-71.0517
-71.0715
-71.1127
-71.179
-71.2762
-71.4134
-71.6032
-71.8649
-72.228
-72.7411
-73.4819
-74.5649
-76.1441
-78.3317
-81.0817
-70.4506
-70.4653
-70.4963
-70.5471
-70.6235
-70.7343
-70.8927
-71.1185
-71.4446
-71.9279
-72.6717
-73.8667
-75.8912
-79.3976
-84.3261
-69.8376
-69.8461
-69.8646
-69.8961
-69.9456
-70.0208
-70.1332
-70.3
-70.5498
-70.9333
-71.5463
-72.5901
-74.6079
-79.4734
-95.3094
-95.1269
-79.2539
-74.3123
-72.2691
-71.2324
-70.64
-70.2799
-70.0521
-69.9046
-69.8081
-69.7455
-69.7056
-69.6811
-69.6671
-69.6608
-84.7818
-79.1354
-75.4644
-73.432
-72.2731
-71.5731
-71.1292
-70.8362
-70.637
-70.4997
-70.405
-70.3406
-70.2983
-70.2728
-70.2609
-80.3646
-77.6434
-75.4772
-73.9858
-72.9935
-72.3275
-71.872
-71.5527
-71.3246
-71.1601
-71.0421
-70.9588
-70.9024
-70.8675
-70.8509
-75.8773
-75.7642
-75.0196
-74.1906
-73.4855
-72.935
-72.5182
-72.2036
-71.9659
-71.7869
-71.6537
-71.5571
-71.4901
-71.4479
-71.4275
-71.4927
-74.3218
-74.6192
-74.3068
-73.8682
-73.449
-73.0914
-72.7988
-72.5644
-72.3802
-72.2386
-72.1333
-72.0589
-72.0114
-71.9883
-75.9199
-74.6359
-74.6406
-74.5083
-74.2355
-73.9195
-73.6174
-73.351
-73.126
-72.9423
-72.797
-72.6866
-72.6074
-72.5563
-72.5313
-70.512
-74.0531
-74.7555
-74.8048
-74.631
-74.3794
-74.1167
-73.8719
-73.6568
-73.476
-73.3298
-73.2168
-73.1347
-73.0813
-73.0551
-77.6655
-75.4397
-75.3223
-75.2537
-75.0786
-74.8459
-74.6016
-74.3696
-74.1618
-73.984
-73.8382
-73.7241
-73.6405
-73.5857
-73.5587
-71.3957
-75.3604
-75.8537
-75.7738
-75.5642
-75.3197
-75.0758
-74.8478
-74.6437
-74.468
-74.323
-74.2088