/*--------------------------------*- C++ -*----------------------------------*\
| =========                 |                                                 |
| \\      /  F ield         | OpenFOAM: The Open Source CFD Toolbox           |
|  \\    /   O peration     | Version:  5.x                                   |
|   \\  /    A nd           | Web:      www.OpenFOAM.org                      |
|    \\/     M anipulation  |                                                 |
\*---------------------------------------------------------------------------*/
FoamFile
{
    version     2.0;
    format      ascii;
    class       volScalarField;
    location    "0.7";
    object      gradTy;
}
// * * * * * * * * * * * * * * * * * * * * * * * * * * * * * * * * * * * * * //

dimensions      [0 -1 0 1 0 0 0];

internalField   nonuniform List<scalar> 
6300
(
32269.4
32208.4
32147.4
32086.6
32026.1
31965.9
31906.2
31846.9
31788.2
31730.1
31672.8
31616.3
31560.6
31505.9
31452.2
-0.0540953
-0.162524
-0.271664
-0.381911
-0.493518
-0.606563
-0.720892
-0.836065
-0.951331
-1.06562
-1.17759
-1.28572
-1.38852
-1.48469
-1.5734
-0.0898797
-0.270071
-0.451524
-0.634951
-0.820849
-1.00941
-1.20042
-1.39319
-1.58647
-1.77841
-1.96667
-2.14855
-2.32129
-2.4825
-2.63055
-0.125216
-0.376321
-0.629373
-0.885479
-1.14547
-1.40974
-1.67813
-1.94974
-2.22285
-2.49479
-2.76205
-3.02042
-3.2655
-3.49335
-3.70125
-0.15988
-0.480594
-0.804099
-1.13203
-1.46569
-1.80582
-2.15245
-2.50462
-2.8602
-3.21567
-3.5661
-3.90536
-4.22673
-4.5239
-4.79236
-0.193582
-0.582042
-0.974336
-1.37279
-1.77932
-2.19527
-2.62106
-3.05593
-3.49748
-3.94138
-4.3811
-4.80798
-5.21195
-5.58298
-5.91338
-0.225956
-0.679587
-1.13832
-1.60532
-2.08339
-2.57468
-3.0804
-3.6003
-4.13214
-4.67099
-5.20863
-5.73319
-6.22977
-6.68231
-7.07737
-0.256591
-0.771979
-1.29394
-1.82667
-2.37407
-2.93948
-3.52532
-4.13247
-4.75951
-5.40154
-6.04889
-6.68603
-7.29123
-7.83868
-8.30422
-0.285004
-0.857747
-1.43868
-2.0332
-2.64655
-3.28364
-3.94867
-4.6445
-5.37159
-6.1264
-6.89899
-7.67033
-8.40988
-9.07633
-9.62528
-0.310658
-0.935254
-1.56972
-2.22074
-2.8951
-3.59963
-4.34095
-5.12494
-5.95561
-6.83304
-7.74985
-8.68579
-9.60088
-10.4306
-11.0923
-0.333006
-1.00281
-1.68408
-2.38476
-3.11327
-3.87857
-4.69027
-5.55836
-6.49245
-7.49979
-8.58095
-9.7213
-10.8763
-11.9518
-12.7943
-0.351535
-1.05881
-1.77888
-2.52078
-3.2944
-4.11083
-4.98287
-5.9254
-6.95557
-8.09212
-9.3521
-10.7412
-12.2301
-13.7047
-14.8924
-0.365823
-1.10195
-1.85171
-2.6249
-3.43247
-4.28721
-5.20465
-6.20437
-7.31179
-8.56034
-9.99319
-11.6603
-13.5973
-15.7433
-17.7024
-0.375604
-1.13135
-1.90095
-2.69443
-3.52314
-4.40061
-5.3438
-6.37521
-7.52628
-8.84349
-10.399
-12.3086
-14.7543
-17.968
-21.8701
-0.380812
-1.14682
-1.92618
-2.72854
-3.56482
-4.44799
-5.39439
-6.42593
-7.574
-8.88751
-10.4499
-12.4198
-15.1422
-19.5034
-28.2878
31404
31360.9
31318.6
31277.2
31236.6
31196.9
31158.1
31120.3
31083.4
31047.4
31012.5
30978.5
30945.5
30913.6
30882.7
30852.7
30823.8
30795.9
30768.9
30742.9
30717.9
30693.8
30670.5
30648.1
30626.6
30605.9
30585.9
30566.6
30548
30530.1
30512.8
30496
30479.8
30464.1
30448.8
30433.9
30419.3
30405.1
30391.2
30377.6
30364.2
30350.9
30337.8
30324.8
30311.8
30298.9
30285.9
30272.9
30259.9
30246.7
30233.3
30219.8
30206
30191.9
30177.6
30162.8
30147.7
30132.1
30116
30099.5
30082.3
30064.6
30046.2
30027.2
30007.4
29987
29965.7
29943.6
29920.7
29896.9
29872.2
29846.5
29820
29792.4
29763.9
29734.3
29703.8
29672.2
29639.5
29605.9
29571.1
29535.4
29498.6
29460.8
29422
29382.2
29341.4
29299.6
29257
29213.4
-1.64766
-1.7101
-1.76793
-1.8218
-1.8723
-1.91988
-1.96466
-2.00636
-2.04434
-2.07767
-2.10528
-2.12612
-2.13932
-2.14426
-2.14066
-2.12846
-2.10784
-2.07911
-2.04265
-1.99889
-1.94827
-1.89133
-1.82864
-1.76085
-1.68864
-1.61272
-1.53381
-1.45255
-1.36957
-1.28542
-1.2006
-1.11555
-1.03062
-0.946093
-0.862162
-0.77894
-0.696477
-0.614775
-0.533808
-0.45353
-0.373877
-0.294761
-0.216056
-0.137594
-0.059169
0.0194538
0.0985108
0.178215
0.258731
0.340157
0.422521
0.50578
0.589832
0.674528
0.759675
0.845049
0.930394
1.01543
1.09988
1.18345
1.26587
1.34689
1.42627
1.50375
1.57906
1.65185
1.72176
1.7884
1.85135
1.91024
1.96472
2.01449
2.05926
2.09872
2.13255
2.1604
2.18194
2.19686
2.205
2.20627
2.20068
2.18827
2.16907
2.14298
2.10976
2.0691
2.02061
1.964
1.8991
1.82601
-2.75384
-2.85706
-2.95243
-3.04121
-3.1247
-3.20382
-3.27886
-3.34938
-3.41415
-3.4714
-3.51907
-3.5552
-3.57817
-3.58692
-3.58097
-3.56038
-3.52554
-3.47707
-3.41565
-3.34197
-3.25681
-3.16099
-3.0555
-2.94142
-2.81995
-2.69233
-2.55976
-2.42337
-2.28419
-2.14316
-2.00112
-1.85881
-1.71684
-1.57567
-1.43562
-1.29686
-1.15943
-1.02332
-0.888467
-0.754789
-0.622195
-0.490553
-0.359663
-0.229242
-0.0989229
0.0317206
0.163126
0.295688
0.429706
0.565357
0.702679
0.841589
0.981899
1.12335
1.2656
1.40828
1.55095
1.69312
1.83429
1.97399
2.11175
2.24716
2.37984
2.50942
2.63542
2.75732
2.87446
2.98614
3.09165
3.19033
3.28161
3.36502
3.4401
3.50638
3.5633
3.61025
3.64658
3.67176
3.68544
3.68754
3.67815
3.65748
3.62564
3.58252
3.5277
3.46053
3.38022
3.2861
3.17781
3.05543
-3.87286
-4.01548
-4.14656
-4.26847
-4.38364
-4.49387
-4.59988
-4.70098
-4.79512
-4.87924
-4.94983
-5.00357
-5.03785
-5.05107
-5.04272
-5.01314
-4.96322
-4.89402
-4.8066
-4.70193
-4.581
-4.44491
-4.29502
-4.13293
-3.96043
-3.77935
-3.59149
-3.39846
-3.20172
-3.0026
-2.80227
-2.60181
-2.40211
-2.20383
-2.00741
-1.81301
-1.62064
-1.43019
-1.24154
-1.05459
-0.869225
-0.685324
-0.502641
-0.320773
-0.139156
0.0428943
0.226097
0.4111
0.598386
0.788222
0.980642
1.17549
1.37245
1.57114
1.77107
1.9717
2.17239
2.37243
2.57106
2.76754
2.96123
3.15159
3.33816
3.52047
3.69798
3.86991
4.03531
4.19307
4.34209
4.48138
4.61016
4.72784
4.83392
4.92782
5.00874
5.07569
5.1276
5.16352
5.18289
5.18566
5.17219
5.14307
5.09875
5.03918
4.96372
4.87115
4.75999
4.6289
4.47705
4.30439
-5.01088
-5.19031
-5.35367
-5.50526
-5.64952
-5.78989
-5.92789
-6.06255
-6.1905
-6.30657
-6.40489
-6.48001
-6.52788
-6.54633
-6.53509
-6.49528
-6.42873
-6.33729
-6.22248
-6.08541
-5.92712
-5.74882
-5.55223
-5.33955
-5.11335
-4.87627
-4.63077
-4.379
-4.12282
-3.86388
-3.60374
-3.34384
-3.08544
-2.82944
-2.57637
-2.32634
-2.07917
-1.83457
-1.59227
-1.35217
-1.11423
-0.878413
-0.644506
-0.411999
-0.180065
0.0523645
0.286438
0.52319
0.763368
1.00734
1.2551
1.50633
1.76053
2.01714
2.27555
2.53505
2.79479
3.05379
3.31092
3.56513
3.81554
4.0615
4.30261
4.53848
4.76857
4.99192
5.20716
5.4126
5.60655
5.78756
5.95468
6.10738
6.24529
6.36792
6.47427
6.56279
6.63162
6.6791
6.70425
6.70713
6.68875
6.65056
6.5938
6.51873
6.42436
6.30852
6.16846
6.00161
5.80628
5.58209
-6.1765
-6.38816
-6.57766
-6.75257
-6.92095
-7.08932
-7.26076
-7.43391
-7.60313
-7.75965
-7.89356
-7.99594
-8.06053
-8.08463
-8.06886
-8.0162
-7.93036
-7.81453
-7.6707
-7.49978
-7.30234
-7.07939
-6.83292
-6.56597
-6.28226
-5.98562
-5.67937
-5.36619
-5.04816
-4.72716
-4.40511
-4.08397
-3.76552
-3.45106
-3.14118
-2.83575
-2.53419
-2.23577
-1.94
-1.64676
-1.35629
-1.06885
-0.784437
-0.502462
-0.22173
0.0594415
0.342913
0.63035
0.922907
1.22106
1.52462
1.83295
2.14523
2.46068
2.77858
3.09817
3.41843
3.73798
4.05517
4.36839
4.67642
4.9786
5.2748
5.56504
5.84906
6.12581
6.39331
6.6489
6.88983
7.11396
7.32019
7.50838
7.67888
7.83167
7.96567
8.07842
8.16658
8.22699
8.25784
8.25941
8.234
8.18499
8.11536
8.02625
7.91609
7.78093
7.61564
7.41545
7.17715
6.89978
-7.38144
-7.61753
-7.82228
-8.00885
-8.19197
-8.38388
-8.59071
-8.81053
-9.03367
-9.24498
-9.42739
-9.56606
-9.65131
-9.68014
-9.65565
-9.58476
-9.47508
-9.33204
-9.15787
-8.9523
-8.71429
-8.44385
-8.14315
-7.81656
-7.46987
-7.10886
-6.73807
-6.36044
-5.97786
-5.59206
-5.20527
-4.82032
-4.43998
-4.06621
-3.69967
-3.33969
-2.98477
-2.63327
-2.28417
-1.93747
-1.59406
-1.25503
-0.920927
-0.591204
-0.264086
0.0631564
0.393634
0.730099
1.07435
1.42694
1.78724
2.15387
2.52537
2.90067
3.27917
3.66034
4.04312
4.42559
4.80514
5.17912
5.54571
5.90431
6.25554
6.60054
6.93998
7.27297
7.59655
7.9062
8.19717
8.46601
8.71152
8.93471
9.13777
9.32228
9.48743
9.62922
9.74126
9.81718
9.8533
9.85025
9.81294
9.7488
9.6647
9.56377
9.44351
9.29644
9.11279
8.88387
8.60402
8.27141
-8.6439
-8.89143
-9.09235
-9.26935
-9.44943
-9.65598
-9.90084
-10.1812
-10.4801
-10.7708
-11.0232
-11.2121
-11.3223
-11.3515
-11.3083
-11.2083
-11.067
-10.8936
-10.6896
-10.4509
-10.1723
-9.85131
-9.4901
-9.09558
-8.67765
-8.24579
-7.80621
-7.36148
-6.91189
-6.45807
-6.00252
-5.54977
-5.10475
-4.67075
-4.24852
-3.83619
-3.43029
-3.02716
-2.62474
-2.22334
-1.82543
-1.43404
-1.05105
-0.676144
-0.306583
0.0622451
0.435758
0.818642
1.2138
1.62171
2.04071
2.46774
2.89996
3.33598
3.77584
4.2201
4.66814
5.11729
5.56297
6.00035
6.42631
6.84041
7.24497
7.64374
8.03987
8.43328
8.81941
9.18994
9.53585
9.85107
10.1343
10.3893
10.6226
10.84
11.042
11.222
11.367
11.4637
11.5042
11.4894
11.4295
11.3402
11.2372
11.128
11.0084
10.8635
10.674
10.4245
10.1058
9.71535
-9.99372
-10.2314
-10.3957
-10.5242
-10.6675
-10.8715
-11.1582
-11.5236
-11.9365
-12.3498
-12.7085
-12.9694
-13.1083
-13.1254
-13.041
-12.8897
-12.7036
-12.4976
-12.2697
-12.0054
-11.6901
-11.3154
-10.8838
-10.4072
-9.9044
-9.3928
-8.88082
-8.36862
-7.8512
-7.32581
-6.795
-6.26741
-5.75299
-5.25775
-4.78257
-4.32294
-3.87135
-3.41963
-2.96346
-2.50385
-2.04707
-1.60069
-1.16928
-0.753194
-0.347864
0.0547179
0.464486
0.889588
1.3349
1.80055
2.28258
2.77408
3.269
3.7656
4.26601
4.77421
5.29134
5.81372
6.33244
6.83766
7.32356
7.78978
8.2422
8.69012
9.14301
9.60332
10.064
10.5082
10.9177
11.2811
11.5967
11.874
12.1291
12.3784
12.6269
12.8634
13.0608
13.1895
13.2328
13.1915
13.0863
12.9496
12.8166
12.705
12.6079
12.4926
12.3197
12.0628
11.7089
11.2574
-11.4824
-11.6756
-11.7494
-11.7565
-11.7969
-11.9668
-12.3012
-12.7961
-13.3913
-14.0063
-14.5331
-14.9012
-15.0683
-15.044
-14.8689
-14.6202
-14.3676
-14.132
-13.9014
-13.6323
-13.2925
-12.8606
-12.3415
-11.7557
-11.1432
-10.5397
-9.95517
-9.38275
-8.80149
-8.2009
-7.58242
-6.96567
-6.37327
-5.8155
-5.29392
-4.79783
-4.31238
-3.81828
-3.30693
-2.7801
-2.25357
-1.7456
-1.26529
-0.814652
-0.385114
0.0368909
0.471165
0.931451
1.42673
1.95578
2.51083
3.07547
3.63556
4.1897
4.74489
5.31534
5.90684
6.51527
7.12118
7.70259
8.24892
8.75874
9.24552
9.72893
10.235
10.7724
11.3315
11.876
12.3653
12.7792
13.1132
13.3899
13.6427
13.9168
14.2278
14.56
14.8522
15.0368
15.0819
14.9844
14.787
14.5521
14.3637
14.2597
14.2321
14.2031
14.085
13.8392
13.4512
12.9359
-13.2022
-13.2908
-13.1976
-12.9396
-12.7392
-12.8246
-13.2131
-13.9244
-14.8178
-15.79
-16.5869
-17.123
-17.3044
-17.1804
-16.8033
-16.357
-16.0078
-15.76
-15.5893
-15.3618
-15.0283
-14.5324
-13.8961
-13.1435
-12.3698
-11.6603
-11.0129
-10.4104
-9.78044
-9.10254
-8.36811
-7.62961
-6.94437
-6.3218
-5.76918
-5.25801
-4.76646
-4.24233
-3.67321
-3.05638
-2.43376
-1.85109
-1.31888
-0.846016
-0.411786
0.00114685
0.440159
0.922738
1.46976
2.07349
2.72523
3.38342
4.01074
4.61241
5.2019
5.82632
6.49813
7.22065
7.9454
8.61828
9.22713
9.76112
10.254
10.7353
11.2821
11.9104
12.6203
13.3233
13.922
14.3924
14.7127
14.9405
15.1258
15.4025
15.7982
16.3144
16.7989
17.0853
17.1367
16.9213
16.542
16.0882
15.7893
15.7047
15.8587
16.0424
16.0346
15.8208
15.3773
14.8078
-15.3276
-15.167
-14.8825
-14.0391
-13.2687
-13.2442
-13.6583
-14.789
-16.1291
-17.8246
-19.0146
-19.8539
-19.979
-19.6797
-18.8359
-17.9529
-17.5007
-17.2758
-17.358
-17.2429
-16.9972
-16.4054
-15.6175
-14.561
-13.5032
-12.6909
-12.0052
-11.4772
-10.8279
-10.0851
-9.15925
-8.2165
-7.4249
-6.72709
-6.1845
-5.68968
-5.26722
-4.73092
-4.10802
-3.34082
-2.55629
-1.88378
-1.2869
-0.821656
-0.407696
-0.0720754
0.346479
0.821259
1.43116
2.12206
2.93033
3.73579
4.42283
5.05261
5.60857
6.269
7.01635
7.92273
8.84417
9.626
10.3129
10.8225
11.2787
11.6471
12.2115
12.9306
13.9183
14.92
15.663
16.2206
16.4446
16.5512
16.4762
16.7155
17.194
18.1131
19.0293
19.4709
19.5739
19.0926
18.4025
17.3995
16.9045
16.8043
17.441
18.1554
18.2791
18.1317
17.4833
16.9604
-18.2529
-17.2208
-17.371
-15.0319
-12.7224
-13.0309
-13.0699
-15.3503
-16.9266
-20.5854
-21.9453
-23.6115
-23.2631
-22.9616
-20.9232
-18.9268
-18.6647
-18.3479
-19.4094
-19.311
-19.4636
-18.5596
-17.7248
-15.9794
-14.2825
-13.5383
-12.7698
-12.7181
-12.0095
-11.3308
-9.97419
-8.58526
-7.76992
-6.90845
-6.53065
-6.01684
-5.93164
-5.34397
-4.75043
-3.65
-2.51728
-1.80736
-1.06515
-0.723295
-0.290655
-0.264643
0.171901
0.525215
1.27596
2.00161
3.13948
4.25873
4.91736
5.59913
5.86473
6.58646
7.30547
8.60303
9.94389
10.7703
11.6539
11.9603
12.4297
12.2763
12.9178
13.5631
15.1957
16.8886
17.6701
18.5283
18.3447
18.4224
17.3728
17.6825
17.9536
19.9146
21.9413
22.3423
22.8507
21.5627
20.7116
17.9772
17.4493
16.8409
18.9091
21.1172
20.9119
21.1619
19.4065
19.6269
-23.3831
-17.5697
-23.442
-15.9803
-8.40475
-13.2041
-9.25282
-16.9244
-14.7244
-26.6555
-24.4342
-30.2694
-26.4788
-28.7439
-22.9492
-17.4028
-19.9071
-17.4347
-23.1312
-21.0174
-23.4514
-20.6142
-21.1434
-17.3283
-13.6898
-14.4209
-12.5024
-14.905
-13.1482
-13.5532
-10.8359
-8.12823
-8.18152
-6.39345
-7.07282
-5.72703
-7.3199
-5.96578
-6.12308
-4.00586
-1.86954
-1.77751
-0.266894
-0.755737
0.41187
-1.04855
0.117017
-0.343334
1.15673
1.28744
3.37544
5.44502
5.37866
6.74506
5.46411
6.90787
6.76149
9.22106
11.7846
11.8324
13.8263
12.8636
14.4773
11.7608
13.6182
12.7735
16.3861
20.1696
19.5663
22.3362
19.8678
21.9163
16.3114
18.7043
16.2789
21.6207
27.1935
25.0582
28.7134
23.4027
25.7316
15.3762
18.1091
13.0219
20.1747
27.5531
22.8881
27.0786
18.4839
24.0222
-38.8629
-1.08921
-48.712
-17.0906
13.7348
-25.976
11.3035
-32.711
7.82868
-53.1028
-15.3196
-50.7864
-20.9726
-46.1301
-24.6161
-4.28371
-28.3144
-4.75664
-38.0984
-16.1737
-35.029
-17.8203
-30.8169
-18.422
-6.80383
-19.1181
-6.01203
-23.0808
-11.1736
-20.2714
-11.6832
-3.69489
-11.2442
-2.32485
-10.5309
-1.20519
-12.9518
-4.41104
-10.7711
-4.38911
1.72229
-3.7902
3.41088
-3.1733
4.89895
-5.61393
2.4034
-4.03506
3.00924
-2.24539
3.63789
9.70725
3.77685
11.7032
1.13973
9.51895
2.4647
9.6893
17.2481
10.092
20.2563
10.0566
22.7604
4.658
18.2091
5.56463
17.3296
29.7669
16.6044
33.6861
14.8857
36.4298
3.73155
26.6628
3.41761
22.992
43.5434
19.4339
47.4847
14.2392
49.0149
-6.07443
30.0275
-8.42535
21.1129
51.3291
12.1095
51.4035
-2.79315
38.6669
29164.5
29110
29054.4
28997.8
28940.2
28881.8
28822.6
28762.7
28702.2
28641.1
28579.7
28517.9
28455.8
28393.6
28331.2
1.73703
1.6298
1.51415
1.39211
1.26588
1.13752
1.00885
0.881274
0.755791
0.632964
0.512983
0.395727
0.280829
0.167739
0.0557838
2.906
2.72546
2.53045
2.32466
2.11198
1.89606
1.68004
1.46634
1.25659
1.05168
0.851861
0.656864
0.466001
0.278287
0.09254
4.09257
3.83562
3.55756
3.26412
2.96132
2.65469
2.34889
2.04739
1.75245
1.46521
1.18584
0.913799
0.64797
0.386836
0.128617
5.30499
4.96687
4.59999
4.21292
3.81442
3.41244
3.01336
2.62178
2.2405
1.87072
1.51237
1.16443
0.825172
0.492425
0.163691
6.55322
6.12683
5.66257
5.17309
4.67099
4.16727
3.67032
3.18584
2.71697
2.26468
1.82836
1.40624
0.995778
0.593942
0.19739
7.84944
7.32432
6.75012
6.14562
5.52901
4.9152
4.31479
3.73431
3.17681
2.64259
2.13003
1.63627
1.15766
0.69011
0.229287
9.2095
8.57005
7.8672
7.12965
6.3837
5.64932
4.93911
4.25976
3.61337
2.99879
2.41281
1.85102
1.30836
0.779483
0.258905
10.6556
9.87779
9.01774
8.12101
7.2259
6.35834
5.53198
4.75199
4.01801
3.32633
2.67133
2.04654
1.44519
0.860489
0.285729
12.2221
11.2668
10.204
9.10992
8.03984
7.02511
6.07753
5.19761
4.38009
3.61704
2.89953
2.21851
1.56527
0.931491
0.309226
13.9655
12.7635
11.4219
10.0748
8.79874
7.6244
6.55473
5.58022
4.68732
3.862
3.09108
2.36259
1.66579
0.990909
0.32889
15.9908
14.3985
12.6443
10.9674
9.45574
8.11887
6.93632
5.88075
4.92661
4.05232
3.24
2.47484
1.74428
1.03739
0.344286
18.5483
16.1936
13.788
11.6932
9.9369
8.45827
7.19032
6.07935
5.08573
4.18041
3.34158
2.55233
1.79899
1.06999
0.355121
22.2835
18.0389
14.6201
12.0801
10.1398
8.58625
7.28659
6.16006
5.15621
4.24175
3.39338
2.59375
1.82921
1.08838
0.361295
28.3644
19.0578
14.5716
11.8664
9.95555
8.45967
7.20899
6.11758
5.13695
4.23677
3.39623
2.5999
1.83556
1.09294
0.362934
-0.381867
-1.14965
-1.92978
-2.73106
-3.56329
-4.43787
-5.36868
-6.37365
-7.47751
-8.71716
-10.1529
-11.8936
-14.1567
-17.4201
-22.7664
-0.379687
-1.14269
-1.91671
-2.70945
-3.52923
-4.38525
-5.28795
-6.24943
-7.28407
-8.40893
-9.64265
-10.9955
-12.4185
-13.5639
-12.6839
-0.374961
-1.12802
-1.89053
-2.66893
-3.46986
-4.30005
-5.16615
-6.07405
-7.02747
-8.0245
-9.04906
-10.0483
-10.8723
-11.1137
-9.72164
-0.368034
-1.10671
-1.85321
-2.61266
-3.39003
-4.18975
-5.01508
-5.86671
-6.74014
-7.62052
-8.47262
-9.22217
-9.72954
-9.79738
-9.40996
-0.359271
-1.07991
-1.80679
-2.54384
-3.29455
-4.0615
-4.84549
-5.64385
-6.44753
-7.23584
-7.96718
-8.5634
-8.89163
-8.79644
-8.45954
-0.349027
-1.04871
-1.75321
-2.46541
-3.18768
-3.92129
-4.66568
-5.41688
-6.16509
-6.89041
-7.55547
-8.08971
-8.34756
-7.96269
-5.58558
-0.337627
-1.01411
-1.69417
-2.3799
-3.07281
-3.77348
-4.48093
-5.19163
-5.898
-6.58645
-7.2346
-7.80706
-8.24952
-8.51193
-8.81821
-0.325354
-0.976946
-1.63111
-2.28929
-2.95245
-3.62087
-4.29379
-4.96906
-5.64285
-6.31002
-6.96624
-7.61398
-8.27613
-9.03018
-10.0206
-0.312444
-0.937935
-1.56517
-2.1951
-2.82832
-3.46503
-4.1049
-4.74729
-5.39187
-6.04072
-6.70361
-7.41035
-8.23849
-9.38382
-11.3375
-0.299094
-0.897651
-1.49727
-2.09849
-2.70166
-3.30688
-3.91415
-4.5238
-5.1376
-5.76126
-6.41029
-7.12197
-7.98018
-9.17558
-11.1856
-0.285468
-0.856575
-1.42816
-2.00043
-2.57345
-3.14718
-3.72162
-4.2973
-4.87622
-5.46385
-6.07322
-6.73148
-7.48733
-8.40123
-9.39268
-0.271705
-0.815115
-1.3585
-1.90174
-2.44463
-2.98685
-3.52812
-4.06842
-4.60856
-5.15109
-5.70195
-6.27291
-6.8844
-7.57264
-8.43815
-0.257927
-0.773631
-1.28886
-1.80321
-2.31616
-2.82707
-3.33515
-3.83951
-4.33906
-4.83231
-5.31655
-5.7859
-6.22792
-6.62064
-6.90884
-0.24424
-0.73244
-1.21977
-1.70556
-2.18902
-2.66914
-3.14466
-3.61379
-4.07377
-4.51961
-4.94131
-5.31764
-5.60546
-5.74099
-5.81378
-0.230738
-0.69182
-1.1517
-1.60947
-2.0641
-2.51432
-2.95848
-3.3943
-3.81814
-4.22352
-4.59743
-4.91065
-5.08859
-4.90473
-3.48252
-0.217499
-0.652011
-1.08504
-1.5155
-1.94217
-2.36361
-2.77801
-3.18301
-3.57518
-3.94914
-4.2956
-4.59743
-4.82285
-4.92831
-5.00036
-0.20459
-0.613208
-1.02012
-1.4241
-1.82381
-2.21771
-2.60399
-2.98053
-3.34476
-3.69373
-4.02466
-4.33712
-4.64031
-4.97499
-5.4562
-0.192063
-0.575571
-0.957202
-1.33563
-1.70943
-2.07703
-2.43668
-2.78653
-3.12484
-3.45075
-3.76647
-4.08316
-4.43584
-4.91983
-5.76731
-0.179959
-0.539218
-0.896478
-1.25034
-1.59932
-1.94182
-2.27611
-2.60047
-2.91345
-3.21477
-3.50756
-3.80412
-4.14011
-4.61219
-5.49377
-0.168309
-0.504239
-0.838087
-1.16841
-1.49368
-1.81226
-2.1224
-2.42226
-2.71011
-2.98464
-3.24598
-3.49764
-3.74986
-4.02015
-4.27934
-0.157132
-0.470692
-0.782125
-1.08996
-1.39265
-1.68853
-1.97578
-2.25237
-2.51597
-2.76363
-2.99111
-3.19075
-3.34703
-3.43582
-3.51465
-0.14644
-0.438612
-0.728646
-1.01507
-1.29633
-1.57077
-1.83654
-2.09148
-2.33286
-2.55662
-2.75555
-2.91397
-2.99107
-2.85842
-2.01239
-0.136238
-0.40801
-0.677662
-0.943741
-1.20473
-1.45901
-1.70479
-1.94
-2.16198
-2.36685
-2.54812
-2.69367
-2.78078
-2.77645
-2.71763
-0.126522
-0.378875
-0.629152
-0.875938
-1.11777
-1.35313
-1.58038
-1.7977
-2.00297
-2.19347
-2.3655
-2.51398
-2.63402
-2.73237
-2.87475
-0.117283
-0.35118
-0.58306
-0.811565
-1.03531
-1.25289
-1.46285
-1.66377
-1.85421
-2.03294
-2.19926
-2.35406
-2.50236
-2.6578
-2.84171
-0.10851
-0.324882
-0.539311
-0.750495
-0.95713
-1.15792
-1.35162
-1.53711
-1.7136
-1.88105
-2.04105
-2.19871
-2.3658
-2.56352
-2.81202
-0.100186
-0.299934
-0.497815
-0.692584
-0.883007
-1.06788
-1.24609
-1.41672
-1.5793
-1.73436
-1.8845
-2.03686
-2.20803
-2.43408
-2.78927
-0.0922943
-0.276285
-0.458483
-0.637695
-0.812742
-0.982478
-1.14584
-1.30193
-1.45026
-1.59111
-1.72646
-1.86202
-2.01223
-2.21505
-2.58787
-0.084819
-0.253883
-0.421226
-0.585703
-0.746172
-0.901512
-1.05064
-1.19256
-1.32644
-1.45171
-1.56833
-1.67706
-1.77996
-1.87806
-1.94034
-0.0777432
-0.23268
-0.385966
-0.5365
-0.683173
-0.824872
-0.96047
-1.08881
-1.20863
-1.31838
-1.4157
-1.49623
-1.55111
-1.56604
-1.56042
-0.0710504
-0.212626
-0.352624
-0.489986
-0.623639
-0.752481
-0.875359
-0.990997
-1.09785
-1.19371
-1.27479
-1.33328
-1.35008
-1.26838
-0.873286
-0.0647237
-0.193672
-0.32112
-0.446058
-0.567456
-0.684248
-0.795295
-0.899318
-0.99474
-1.07935
-1.14962
-1.19934
-1.21751
-1.18842
-1.12474
-0.0587452
-0.175764
-0.291367
-0.404599
-0.514486
-0.620019
-0.72013
-0.813642
-0.899178
-0.975001
-1.03877
-1.08739
-1.11782
-1.13258
-1.16287
-0.0530956
-0.158845
-0.263269
-0.365474
-0.464551
-0.559572
-0.64957
-0.733535
-0.810403
-0.879067
-0.93849
-0.988124
-1.02907
-1.06604
-1.10593
-0.0477541
-0.142853
-0.23672
-0.328531
-0.417448
-0.502628
-0.58322
-0.658388
-0.727365
-0.789595
-0.845052
-0.894961
-0.94315
-0.997546
-1.0686
-0.042699
-0.12772
-0.211609
-0.293608
-0.372954
-0.448887
-0.520657
-0.587567
-0.649053
-0.704873
-0.755513
-0.803054
-0.85299
-0.917566
-1.02069
-0.0379073
-0.113379
-0.187819
-0.260538
-0.330845
-0.398052
-0.46149
-0.520541
-0.574712
-0.623793
-0.668168
-0.709543
-0.752728
-0.810897
-0.926829
-0.0333559
-0.0997583
-0.165231
-0.229154
-0.290901
-0.349851
-0.405389
-0.456928
-0.503941
-0.546019
-0.582947
-0.614829
-0.64212
-0.66419
-0.66555
-0.0290209
-0.0867878
-0.143729
-0.19929
-0.252913
-0.304034
-0.352083
-0.396482
-0.43663
-0.471856
-0.501266
-0.523353
-0.53519
-0.531925
-0.519241
-0.0248784
-0.0743953
-0.123191
-0.170782
-0.216674
-0.260364
-0.30133
-0.33901
-0.372766
-0.401766
-0.424702
-0.439041
-0.438791
-0.406254
-0.274926
-0.0209038
-0.0625075
-0.103498
-0.143461
-0.181974
-0.218599
-0.252873
-0.284286
-0.312231
-0.335914
-0.354135
-0.364902
-0.364848
-0.349227
-0.321281
-0.0170721
-0.0510491
-0.0845232
-0.117154
-0.148593
-0.178477
-0.206418
-0.231986
-0.254682
-0.273881
-0.288766
-0.298315
-0.301748
-0.300796
-0.309537
-0.0133575
-0.0399431
-0.0661391
-0.0916818
-0.1163
-0.139713
-0.16162
-0.181697
-0.199581
-0.214867
-0.22712
-0.236005
-0.241719
-0.245665
-0.248859
-0.00973375
-0.0291103
-0.048213
-0.0668566
-0.0848516
-0.102002
-0.118103
-0.132942
-0.146301
-0.157977
-0.167827
-0.175921
-0.18294
-0.191084
-0.207446
-0.00617389
-0.0184697
-0.030609
-0.0424862
-0.0539943
-0.0650245
-0.0754684
-0.0852234
-0.094205
-0.102371
-0.109766
-0.116603
-0.123399
-0.130817
-0.136921
-0.00265069
-0.00793927
-0.0131894
-0.0183754
-0.0234725
-0.028458
-0.0333165
-0.0380479
-0.0426839
-0.0473114
-0.0520999
-0.0573282
-0.0634381
-0.0714779
-0.0877996
0.000863278
0.00256341
0.00418413
0.00567158
0.00696983
0.00801806
0.00874497
0.00905809
0.00882602
0.00785423
0.00586786
0.00255093
-0.0021441
-0.00639732
0.0010536
0.00439543
0.0131208
0.0216496
0.0298493
0.0375851
0.0447169
0.0510935
0.056542
0.0608479
0.0637229
0.0647603
0.0633839
0.0588422
0.0505533
0.0400034
0.00797307
0.0238149
0.0393437
0.0543497
0.0686209
0.0819417
0.0940886
0.104821
0.113865
0.12087
0.125334
0.126417
0.122435
0.109078
0.0706506
0.0116233
0.0347272
0.0574022
0.079362
0.100319
0.119985
0.13807
0.154279
0.168303
0.179788
0.188266
0.192976
0.192549
0.185021
0.172746
0.0153732
0.0459383
0.0759595
0.105074
0.132918
0.159132
0.18336
0.205261
0.224511
0.240806
0.253829
0.263115
0.267612
0.264277
0.241779
0.0192495
0.057529
0.0951496
0.131671
0.166655
0.199664
0.230275
0.258095
0.282784
0.304111
0.322005
0.336599
0.348137
0.356866
0.366537
0.023279
0.0695795
0.115106
0.159342
0.201769
0.241869
0.279141
0.313115
0.343409
0.369818
0.392495
0.412229
0.430644
0.448834
0.454984
0.0274883
0.0821697
0.135964
0.188276
0.238506
0.286049
0.330308
0.370707
0.40675
0.438139
0.465054
0.488807
0.513341
0.549204
0.627528
0.0319036
0.0953789
0.157856
0.218663
0.277117
0.332522
0.38417
0.431343
0.473346
0.509592
0.539841
0.564876
0.588214
0.620138
0.684679
0.0365507
0.109285
0.180914
0.250691
0.317855
0.381617
0.441154
0.495588
0.543966
0.585237
0.618282
0.642161
0.657171
0.668478
0.696246
0.041454
0.123961
0.205263
0.284543
0.360965
0.433659
0.501699
0.564061
0.619548
0.666627
0.703123
0.725649
0.728748
0.705442
0.666295
0.0466369
0.139479
0.231022
0.320388
0.406675
0.488947
0.566203
0.637332
0.700998
0.755399
0.797705
0.822675
0.818712
0.753465
0.506751
0.0521208
0.155903
0.2583
0.35838
0.455186
0.547732
0.634982
0.715809
0.788913
0.852607
0.904364
0.939843
0.951287
0.92756
0.87974
0.0579256
0.173291
0.287195
0.398654
0.506665
0.610209
0.708238
0.799676
0.883394
0.958143
1.02237
1.07376
1.10834
1.11845
1.08315
0.064069
0.191698
0.317795
0.441329
0.561258
0.676529
0.786091
0.88893
0.984137
1.07103
1.14933
1.2194
1.28246
1.34095
1.40821
0.0705675
0.211172
0.35018
0.486517
0.619097
0.746826
0.868629
0.983508
1.09069
1.18992
1.28204
1.36999
1.45981
1.55745
1.63441
0.0774358
0.231757
0.384425
0.534321
0.680313
0.821252
0.955991
1.08346
1.2028
1.31379
1.41769
1.51933
1.6318
1.78841
2.08263
0.084687
0.253495
0.420599
0.584844
0.745047
0.899991
1.04842
1.18907
1.32074
1.44261
1.55497
1.66122
1.7732
1.92391
2.19479
0.0923321
0.276418
0.458761
0.638177
0.81344
0.983264
1.14627
1.30092
1.44552
1.57809
1.69651
1.79919
1.88778
1.97605
2.11044
0.100379
0.300552
0.498959
0.694396
0.885614
1.07128
1.24992
1.41979
1.57868
1.72342
1.84903
1.94701
2.00264
1.99623
1.95887
0.108834
0.325912
0.541219
0.753546
0.961644
1.16418
1.35966
1.5463
1.72167
1.88206
2.02078
2.12427
2.16065
2.03799
1.41026
0.117696
0.352503
0.585546
0.815632
1.04154
1.26197
1.47555
1.68063
1.8751
2.05576
2.21701
2.34819
2.42915
2.43055
2.38446
0.126966
0.380316
0.631923
0.880616
1.12522
1.36453
1.59732
1.82233
2.03813
2.24296
2.43415
2.60702
2.75295
2.85616
2.87705
0.136637
0.409337
0.680317
0.948435
1.21256
1.47159
1.7245
1.97042
2.20879
2.43964
2.66401
2.88458
3.10644
3.33898
3.61867
0.146704
0.439546
0.73069
1.01901
1.30342
1.58288
1.85651
2.12373
2.38467
2.64082
2.8965
3.16127
3.45254
3.7891
4.11365
0.157163
0.470927
0.783008
1.09229
1.3977
1.6982
1.99294
2.28139
2.56385
2.84231
3.12268
3.41954
3.76721
4.24759
5.08059
0.168008
0.503466
0.837251
1.16825
1.49535
1.81749
2.13369
2.44319
2.74576
3.04245
3.33738
3.64252
3.98973
4.46121
5.26155
0.179236
0.537155
0.89341
1.24688
1.59642
1.94087
2.27905
2.60975
2.93173
3.24375
3.54495
3.83624
4.12592
4.44646
4.88516
0.190843
0.571984
0.95148
1.3282
1.70098
2.06856
2.42956
2.78231
3.12454
3.45252
3.75932
4.03105
4.24062
4.34963
4.43432
0.202823
0.607938
1.01145
1.41223
1.80909
2.20075
2.58571
2.96211
3.32717
3.67592
3.99797
4.26894
4.42509
4.26962
3.03701
0.215165
0.644988
1.07327
1.49892
1.92077
2.33752
2.74774
3.14969
3.54102
3.91777
4.27198
4.58647
4.82586
4.93756
5.00174
0.227851
0.683083
1.13688
1.5882
2.03591
2.47875
2.91541
3.34454
3.76489
4.17514
4.57344
4.95603
5.31516
5.63837
5.89622
0.240854
0.722147
1.20216
1.67993
2.15435
2.62419
3.08819
3.54538
3.99563
4.44065
4.88564
5.3417
5.82924
6.38439
7.09722
0.254133
0.762067
1.26895
1.77392
2.27589
2.77356
3.26557
3.7509
4.22984
4.70602
5.18996
5.70531
6.29615
7.02069
7.83233
0.267631
0.80268
1.33701
1.86991
2.40031
2.92676
3.44745
3.96067
4.4658
4.96578
5.47226
6.01625
6.66995
7.59621
9.19112
0.281265
0.843751
1.40601
1.96754
2.52737
3.08381
3.63438
4.17589
4.70513
5.22079
5.72827
6.25072
6.85418
7.70705
9.236
0.294915
0.884939
1.47543
2.06626
2.65666
3.24479
3.82742
4.39944
4.95367
5.48124
5.97361
6.42863
6.86486
7.34799
7.98348
0.308413
0.925758
1.54453
2.16519
2.78739
3.40945
4.02764
4.63512
5.22048
5.76585
6.24458
6.61924
6.84259
6.8827
6.94817
0.321532
0.965538
1.61224
2.26293
2.91807
3.57663
4.23511
4.88593
5.51481
6.09644
6.58749
6.91455
6.94718
6.3994
4.29634
0.333978
1.00339
1.67708
2.35747
3.04624
3.7437
4.4477
5.15175
5.84166
6.48959
7.04394
7.41388
7.4544
6.99572
6.15087
0.34539
1.03823
1.73718
2.44607
3.16823
3.90605
4.66004
5.42713
6.19736
6.94738
7.62803
8.14151
8.30778
7.85972
6.71372
0.355352
1.06876
1.79028
2.52531
3.27919
4.05699
4.86307
5.70008
6.56676
7.45296
8.32779
9.1097
9.58725
9.20781
6.55748
0.363416
1.09359
1.83389
2.59134
3.37339
4.18811
5.0444
5.95215
6.92225
7.96599
9.09158
10.2887
11.4613
12.1321
10.0913
0.369133
1.11133
1.86549
2.64014
3.44472
4.29018
5.1898
6.16068
7.22627
8.42165
9.80504
11.4841
13.6834
16.9384
22.6461
21.8958
16.1873
13.0683
11.0054
9.43582
8.13519
7.00217
5.98435
5.05095
4.18157
3.36129
2.57834
1.82289
1.08636
0.360906
8.87621
11.219
10.8088
9.82122
8.74873
7.70786
6.72374
5.79736
4.92303
4.09334
3.3006
2.53741
1.79671
1.07179
0.35623
4.90414
8.16177
8.94952
8.69549
8.03919
7.24067
6.40483
5.5739
4.76387
3.97923
3.21924
2.48073
1.75945
1.05065
0.349378
3.82731
6.81904
7.81322
7.84859
7.42796
6.79894
6.08212
5.33562
4.58684
3.84782
3.12279
2.41196
1.71344
1.02422
0.340759
5.98819
6.86297
7.34225
7.31784
6.96099
6.41777
5.77965
5.09864
4.40281
3.7065
3.01633
2.33453
1.66086
0.993732
0.330769
6.89806
7.18103
7.22058
7.01747
6.62301
6.10209
5.50663
4.87167
4.21887
3.56074
2.90391
2.25131
1.60366
0.960292
0.319768
8.23156
7.66762
7.2669
6.8495
6.37246
5.83783
5.26071
4.65682
4.03843
3.41392
2.78839
2.16455
1.54339
0.924823
0.308061
8.89308
8.04033
7.32432
6.72252
6.16154
5.60271
5.0331
4.45179
3.86203
3.26762
2.67157
2.0758
1.48124
0.88805
0.295892
10.0019
8.31755
7.30196
6.56679
5.94876
5.37478
4.81332
4.25238
3.68866
3.1223
2.55443
1.98611
1.41804
0.850514
0.283445
9.86405
8.12985
7.08443
6.32933
5.70506
5.13786
4.59293
4.05468
3.51695
2.97789
2.43746
1.89613
1.35441
0.812611
0.27086
8.32258
7.46338
6.66489
6.00069
5.42143
4.88521
4.36766
3.85643
3.34598
2.83429
2.32099
1.80634
1.29076
0.774633
0.258238
7.50562
6.75438
6.15177
5.61278
5.10764
4.61935
4.1378
3.65745
3.17571
2.69168
2.20535
1.7171
1.22742
0.736804
0.245658
6.2036
5.94188
5.59419
5.20109
4.78193
4.34861
3.9069
3.45928
3.0069
2.55055
2.09094
1.62876
1.16468
0.699307
0.233184
5.25022
5.18885
5.06794
4.8073
4.46586
4.08351
3.67995
3.26426
2.84072
2.41158
1.97823
1.54168
1.10279
0.662297
0.220868
3.18227
4.477
4.63853
4.46944
4.17801
3.83299
3.46128
3.07456
2.67832
2.27544
1.86765
1.45616
1.04197
0.625909
0.208756
4.63496