/*--------------------------------*- C++ -*----------------------------------*\
| =========                 |                                                 |
| \\      /  F ield         | OpenFOAM: The Open Source CFD Toolbox           |
|  \\    /   O peration     | Version:  5.x                                   |
|   \\  /    A nd           | Web:      www.OpenFOAM.org                      |
|    \\/     M anipulation  |                                                 |
\*---------------------------------------------------------------------------*/
FoamFile
{
    version     2.0;
    format      ascii;
    class       volScalarField;
    location    "0.7";
    object      T;
}
// * * * * * * * * * * * * * * * * * * * * * * * * * * * * * * * * * * * * * //

dimensions      [0 0 0 1 0 0 0];

internalField   nonuniform List<scalar> 
6300
(
322.695
322.084
321.475
320.868
320.263
319.661
319.064
318.472
317.885
317.305
316.732
316.167
315.611
315.064
314.527
322.694
322.083
321.473
320.865
320.259
319.657
319.059
318.466
317.879
317.298
316.724
316.158
315.601
315.054
314.517
322.694
322.081
321.47
320.86
320.253
319.649
319.05
318.455
317.866
317.283
316.708
316.141
315.583
315.034
314.496
322.692
322.078
321.464
320.852
320.243
319.637
319.035
318.438
317.847
317.262
316.685
316.115
315.555
315.004
314.464
322.691
322.073
321.457
320.842
320.23
319.621
319.016
318.416
317.821
317.234
316.653
316.081
315.518
314.964
314.422
322.689
322.068
321.448
320.83
320.214
319.601
318.992
318.388
317.79
317.198
316.613
316.037
315.47
314.914
314.368
322.687
322.062
321.437
320.815
320.194
319.577
318.964
318.355
317.752
317.155
316.565
315.985
315.413
314.853
314.303
322.685
322.055
321.425
320.798
320.172
319.549
318.931
318.316
317.707
317.104
316.509
315.923
315.346
314.78
314.227
322.682
322.046
321.412
320.778
320.147
319.518
318.893
318.272
317.656
317.047
316.444
315.851
315.267
314.696
314.137
322.679
322.037
321.397
320.757
320.119
319.484
318.852
318.223
317.6
316.982
316.371
315.769
315.178
314.599
314.034
322.676
322.028
321.38
320.734
320.089
319.446
318.806
318.17
317.537
316.91
316.289
315.677
315.075
314.487
313.915
322.672
322.017
321.363
320.709
320.057
319.406
318.758
318.112
317.47
316.832
316.2
315.575
314.96
314.36
313.778
322.669
322.007
321.345
320.683
320.023
319.364
318.707
318.051
317.398
316.748
316.102
315.462
314.831
314.213
313.618
322.665
321.995
321.326
320.657
319.988
319.32
318.654
317.988
317.324
316.661
316
315.341
314.688
314.045
313.424
322.661
321.984
321.307
320.63
319.953
319.276
318.6
317.924
317.248
316.571
315.894
315.216
314.536
313.854
313.18
314.045
313.614
313.192
312.778
312.372
311.975
311.588
311.209
310.841
310.481
310.132
309.792
309.463
309.143
308.834
308.534
308.245
307.966
307.696
307.436
307.185
306.944
306.711
306.487
306.272
306.064
305.864
305.671
305.485
305.305
305.132
304.964
304.801
304.644
304.49
304.341
304.196
304.054
303.914
303.777
303.643
303.51
303.378
303.248
303.118
302.989
302.859
302.729
302.598
302.466
302.332
302.196
302.058
301.917
301.773
301.625
301.474
301.318
301.157
300.991
300.819
300.642
300.458
300.267
300.069
299.864
299.651
299.43
299.201
298.962
298.715
298.459
298.193
297.917
297.632
297.336
297.03
296.714
296.388
296.051
295.704
295.347
294.979
294.601
294.213
293.815
293.407
292.99
292.563
292.128
314.034
313.603
313.18
312.766
312.36
311.963
311.575
311.196
310.827
310.467
310.118
309.778
309.448
309.129
308.819
308.52
308.231
307.952
307.682
307.423
307.172
306.931
306.699
306.476
306.26
306.053
305.854
305.661
305.476
305.297
305.124
304.957
304.795
304.637
304.485
304.336
304.191
304.049
303.911
303.774
303.64
303.508
303.377
303.247
303.118
302.989
302.86
302.73
302.6
302.468
302.335
302.2
302.062
301.922
301.778
301.631
301.48
301.324
301.164
300.999
300.828
300.65
300.467
300.277
300.08
299.875
299.663
299.442
299.213
298.975
298.728
298.472
298.206
297.931
297.646
297.35
297.045
296.729
296.403
296.066
295.719
295.361
294.993
294.615
294.227
293.829
293.421
293.003
292.576
292.14
314.012
313.58
313.157
312.741
312.335
311.937
311.549
311.169
310.8
310.44
310.09
309.75
309.42
309.1
308.791
308.492
308.203
307.924
307.655
307.396
307.146
306.906
306.675
306.452
306.238
306.032
305.833
305.642
305.458
305.28
305.108
304.942
304.781
304.625
304.473
304.326
304.182
304.041
303.904
303.768
303.635
303.504
303.374
303.245
303.117
302.989
302.861
302.732
302.603
302.473
302.34
302.206
302.07
301.931
301.788
301.642
301.492
301.338
301.179
301.014
300.844
300.668
300.486
300.297
300.101
299.897
299.685
299.466
299.238
299.001
298.754
298.499
298.234
297.959
297.674
297.379
297.074
296.758
296.432
296.095
295.748
295.39
295.022
294.644
294.255
293.856
293.448
293.029
292.601
292.165
313.979
313.546
313.121
312.705
312.297
311.899
311.509
311.129
310.759
310.398
310.047
309.707
309.377
309.057
308.748
308.449
308.16
307.882
307.614
307.356
307.107
306.868
306.638
306.417
306.204
305.999
305.802
305.613
305.43
305.254
305.084
304.919
304.76
304.606
304.456
304.31
304.168
304.029
303.893
303.759
303.628
303.498
303.37
303.242
303.116
302.989
302.863
302.736
302.608
302.479
302.349
302.216
302.082
301.944
301.803
301.659
301.511
301.358
301.201
301.038
300.87
300.695
300.515
300.327
300.132
299.93
299.72
299.502
299.275
299.039
298.794
298.539
298.275
298.001
297.717
297.423
297.118
296.802
296.476
296.14
295.792
295.434
295.066
294.687
294.297
293.898
293.488
293.069
292.64
292.201
313.935
313.5
313.074
312.656
312.247
311.847
311.457
311.075
310.704
310.342
309.991
309.65
309.319
308.999
308.69
308.391
308.104
307.826
307.559
307.302
307.055
306.817
306.589
306.369
306.159
305.956
305.761
305.574
305.394
305.22
305.052
304.89
304.733
304.581
304.433
304.289
304.149
304.013
303.879
303.747
303.618
303.49
303.364
303.239
303.114
302.99
302.865
302.741
302.615
302.488
302.36
302.23
302.097
301.962
301.824
301.682
301.536
301.385
301.23
301.07
300.904
300.731
300.553
300.367
300.175
299.974
299.766
299.55
299.324
299.09
298.847
298.593
298.331
298.058
297.774
297.481
297.176
296.862
296.536
296.199
295.852
295.493
295.124
294.745
294.354
293.954
293.543
293.122
292.691
292.251
313.879
313.442
313.014
312.595
312.184
311.783
311.391
311.008
310.635
310.272
309.919
309.577
309.246
308.926
308.617
308.319
308.032
307.755
307.49
307.234
306.989
306.753
306.527
306.31
306.102
305.902
305.71
305.525
305.348
305.177
305.012
304.853
304.699
304.549
304.404
304.264
304.126
303.992
303.861
303.732
303.606
303.481
303.357
303.234
303.112
302.99
302.869
302.746
302.624
302.5
302.374
302.247
302.117
301.985
301.849
301.71
301.567
301.419
301.267
301.109
300.946
300.777
300.601
300.418
300.228
300.03
299.824
299.61
299.387
299.155
298.913
298.662
298.4
298.129
297.847
297.554
297.25
296.936
296.61
296.274
295.926
295.567
295.198
294.817
294.426
294.024
293.612
293.189
292.756
292.313
313.811
313.372
312.942
312.521
312.109
311.705
311.311
310.927
310.552
310.187
309.833
309.49
309.158
308.837
308.529
308.231
307.945
307.67
307.406
307.152
306.909
306.676
306.452
306.238
306.033
305.836
305.648
305.467
305.293
305.125
304.964
304.808
304.657
304.512
304.37
304.233
304.099
303.968
303.84
303.714
303.591
303.469
303.348
303.229
303.11
302.991
302.872
302.753
302.634
302.513
302.391
302.267
302.14
302.011
301.879
301.744
301.604
301.46
301.311
301.157
300.997
300.831
300.658
300.479
300.292
300.097
299.894
299.683
299.462
299.232
298.993
298.744
298.484
298.214
297.934
297.642
297.34
297.026
296.701
296.364
296.016
295.657
295.287
294.905
294.513
294.109
293.695
293.27
292.834
292.389
313.731
313.29
312.858
312.435
312.02
311.615
311.219
310.832
310.454
310.087
309.731
309.386
309.053
308.733
308.424
308.127
307.842
307.569
307.306
307.055
306.814
306.584
306.364
306.154
305.952
305.76
305.575
305.398
305.228
305.065
304.908
304.756
304.61
304.468
304.33
304.197
304.067
303.94
303.815
303.694
303.574
303.455
303.338
303.222
303.107
302.992
302.877
302.761
302.645
302.528
302.41
302.29
302.167
302.043
301.915
301.783
301.648
301.508
301.363
301.213
301.057
300.895
300.726
300.55
300.367
300.175
299.976
299.768
299.551
299.324
299.087
298.84
298.583
298.315
298.036
297.746
297.445
297.132
296.808
296.471
296.122
295.762
295.391
295.009
294.615
294.21
293.794
293.366
292.928
292.478
313.638
313.194
312.76
312.336
311.92
311.512
311.113
310.723
310.342
309.971
309.612
309.265
308.931
308.61
308.302
308.007
307.724
307.452
307.192
306.943
306.705
306.479
306.262
306.056
305.86
305.672
305.492
305.319
305.154
304.996
304.844
304.697
304.555
304.418
304.285
304.156
304.03
303.907
303.787
303.67
303.554
303.44
303.327
303.215
303.104
302.992
302.881
302.77
302.658
302.545
302.431
302.316
302.198
302.078
301.955
301.828
301.697
301.562
301.423
301.277
301.126
300.968
300.803
300.632
300.453
300.266
300.07
299.866
299.653
299.429
299.196
298.951
298.697
298.431
298.155
297.867
297.567
297.255
296.931
296.594
296.245
295.884
295.511
295.128
294.733
294.327
293.909
293.479
293.037
292.583
313.531
313.085
312.65
312.224
311.807
311.398
310.996
310.601
310.215
309.84
309.476
309.127
308.791
308.47
308.163
307.87
307.588
307.319
307.061
306.815
306.581
306.358
306.146
305.946
305.754
305.572
305.397
305.231
305.071
304.918
304.772
304.631
304.495
304.363
304.235
304.11
303.989
303.871
303.756
303.643
303.533
303.423
303.315
303.207
303.1
302.993
302.886
302.779
302.672
302.564
302.455
302.345
302.233
302.118
302
301.879
301.754
301.624
301.49
301.35
301.203
301.051
300.891
300.724
300.549
300.368
300.177
299.978
299.769
299.55
299.319
299.078
298.825
298.563
298.289
298.004
297.706
297.396
297.072
296.735
296.384
296.021
295.647
295.263
294.867
294.46
294.04
293.608
293.162
292.703
313.409
312.961
312.525
312.1
311.684
311.273
310.867
310.467
310.074
309.691
309.322
308.967
308.63
308.31
308.005
307.715
307.436
307.169
306.914
306.67
306.439
306.221
306.016
305.821
305.637
305.461
305.293
305.132
304.978
304.832
304.692
304.558
304.428
304.302
304.179
304.06
303.944
303.831
303.721
303.614
303.509
303.405
303.302
303.199
303.096
302.993
302.89
302.788
302.686
302.584
302.482
302.377
302.271
302.162
302.05
301.934
301.816
301.693
301.565
301.431
301.291
301.143
300.988
300.826
300.657
300.481
300.297
300.104
299.9
299.685
299.458
299.219
298.969
298.709
298.439
298.158
297.864
297.556
297.233
296.894
296.541
296.175
295.799
295.413
295.017
294.611
294.19
293.755
293.306
292.842
313.267
312.819
312.386
311.965
311.552
311.141
310.731
310.323
309.919
309.524
309.145
308.784
308.445
308.126
307.827
307.542
307.268
307.004
306.749
306.508
306.28
306.067
305.869
305.683
305.507
305.339
305.177
305.023
304.876
304.736
304.604
304.478
304.356
304.236
304.119
304.005
303.894
303.786
303.683
303.582
303.484
303.386
303.289
303.19
303.092
302.993
302.895
302.797
302.701
302.606
302.51
302.413
302.313
302.21
302.104
301.995
301.883
301.769
301.649
301.522
301.388
301.246
301.096
300.938
300.775
300.606
300.43
300.245
300.048
299.837
299.613
299.377
299.128
298.871
298.605
298.33
298.042
297.738
297.415
297.073
296.715
296.343
295.963
295.577
295.184
294.781
294.361
293.924
293.47
293
313.102
312.657
312.228
311.82
311.418
311.008
310.594
310.171
309.752
309.335
308.941
308.57
308.23
307.916
307.628
307.356
307.086
306.824
306.567
306.325
306.099
305.893
305.703
305.53
305.367
305.207
305.052
304.902
304.762
304.63
304.509
304.393
304.279
304.167
304.056
303.946
303.839
303.736
303.639
303.547
303.458
303.368
303.276
303.182
303.088
302.992
302.897
302.805
302.715
302.627
302.54
302.452
302.359
302.263
302.162
302.06
301.956
301.851
301.742
301.624
301.497
301.359
301.214
301.059
300.901
300.74
300.575
300.402
300.213
300.009
299.787
299.55
299.299
299.044
298.783
298.52
298.245
297.945
297.624
297.276
296.909
296.523
296.137
295.749
295.366
294.974
294.556
294.118
293.655
293.181
312.902
312.475
312.038
311.665
311.298
310.881
310.47
310.016
309.581
309.112
308.706
308.312
307.98
307.667
307.409
307.164
306.895
306.637
306.361
306.121
305.891
305.696
305.514
305.363
305.221
305.068
304.922
304.768
304.635
304.51
304.405
304.307
304.2
304.098
303.989
303.885
303.775
303.68
303.588
303.509
303.434
303.35
303.267
303.176
303.086
302.988
302.898
302.808
302.727
302.646
302.573
302.498
302.411
302.322
302.221
302.127
302.03
301.941
301.848
301.738
301.621
301.485
301.344
301.184
301.033
300.877
300.734
300.582
300.401
300.208
299.98
299.745
299.475
299.224
298.964
298.728
298.481
298.185
297.872
297.504
297.129
296.703
296.312
295.914
295.562
295.203
294.779
294.347
293.858
293.392
312.634
312.306
311.759
311.5
311.25
310.744
310.409
309.833
309.457
308.802
308.453
307.965
307.701
307.341
307.169
307.007
306.688
306.475
306.104
305.905
305.63
305.481
305.28
305.183
305.093
304.919
304.802
304.604
304.499
304.359
304.292
304.231
304.116
304.04
303.914
303.832
303.692
303.617
303.517
303.467
303.421
303.332
303.271
303.167
303.096
302.971
302.9
302.798
302.738
302.653
302.608
302.561
302.467
302.398
302.271
302.198
302.091
302.036
301.978
301.86
301.773
301.617
301.503
301.294
301.174
300.995
300.903
300.806
300.605
300.456
300.184
299.989
299.625
299.418
299.109
298.953
298.789
298.447
298.198
297.744
297.423
296.83
296.499
296.009
295.77
295.525
295.014
294.66
294.025
293.661
291.64
291.095
290.539
289.973
289.398
288.814
288.222
287.624
287.019
286.409
285.795
285.178
284.557
283.935
283.312
291.651
291.106
290.549
289.983
289.406
288.822
288.229
287.63
287.024
286.414
285.799
285.18
284.559
283.936
283.312
291.674
291.128
290.57
290.001
289.423
288.837
288.242
287.641
287.034
286.422
285.806
285.186
284.563
283.939
283.313
291.709
291.16
290.6
290.029
289.449
288.86
288.263
287.659
287.049
286.435
285.816
285.193
284.569
283.942
283.314
291.756
291.204
290.641
290.067
289.483
288.89
288.289
287.682
287.069
286.451
285.829
285.204
284.576
283.946
283.316
291.815
291.26
290.692
290.113
289.525
288.928
288.323
287.711
287.094
286.472
285.846
285.217
284.585
283.952
283.317
291.887
291.327
290.754
290.17
289.576
288.973
288.363
287.746
287.124
286.497
285.866
285.232
284.596
283.958
283.319
291.972
291.406
290.827
290.236
289.636
289.026
288.409
287.786
287.158
286.525
285.889
285.249
284.608
283.966
283.322
292.071
291.498
290.911
290.313
289.704
289.086
288.462
287.831
287.196
286.557
285.914
285.269
284.622
283.974
283.325
292.185
291.604
291.007
290.399
289.78
289.153
288.52
287.881
287.238
286.591
285.942
285.29
284.637
283.983
283.328
292.316
291.724
291.115
290.495
289.864
289.227
288.583
287.935
287.283
286.629
285.972
285.313
284.653
283.992
283.331
292.465
291.859
291.236
290.6
289.956
289.306
288.651
287.993
287.332
286.669
286.004
285.338
284.67
284.003
283.334
292.636
292.012
291.368
290.714
290.054
289.389
288.722
288.053
287.382
286.71
286.037
285.363
284.688
284.013
283.338
292.836
292.183
291.512
290.834
290.155
289.475
288.795
288.114
287.433
286.752
286.071
285.389
284.706
284.024
283.341
293.081
292.372
291.661
290.956
290.256
289.561
288.868
288.176
287.485
286.795
286.105
285.415
284.725
284.035
283.345
322.658
321.973
321.289
320.604
319.92
319.235
318.55
317.865
317.178
316.49
315.799
315.103
314.398
313.671
312.885
322.655
321.964
321.273
320.582
319.89
319.198
318.506
317.812
317.117
316.419
315.717
315.008
314.287
313.547
312.774
322.651
321.954
321.257
320.559
319.861
319.162
318.462
317.761
317.057
316.35
315.639
314.92
314.191
313.445
312.674
322.648
321.945
321.241
320.537
319.832
319.127
318.42
317.711
317
316.285
315.566
314.84
314.106
313.362
312.612
322.645
321.936
321.226
320.516
319.805
319.092
318.379
317.663
316.945
316.223
315.497
314.766
314.029
313.282
312.517
322.642
321.927
321.211
320.495
319.778
319.059
318.339
317.617
316.892
316.164
315.433
314.697
313.958
313.215
312.471
322.639
321.918
321.197
320.475
319.751
319.027
318.301
317.573
316.842
316.108
315.371
314.632
313.89
313.149
312.424
322.637
321.91
321.183
320.455
319.726
318.996
318.264
317.53
316.794
316.055
315.312
314.567
313.82
313.073
312.324
322.634
321.902
321.17
320.436
319.702
318.967
318.229
317.49
316.748
316.003
315.255
314.505
313.752
312.999
312.257
322.632
321.894
321.157
320.419
319.679
318.938
318.196
317.451
316.704
315.954
315.201
314.444
313.683
312.917
312.135
322.629
321.887
321.145
320.402
319.657
318.912
318.164
317.414
316.662
315.907
315.149
314.386
313.619
312.846
312.071
322.627
321.88
321.133
320.385
319.636
318.886
318.134
317.38
316.623
315.863
315.099
314.332
313.558
312.777
311.978
322.625
321.874
321.122
320.37
319.616
318.862
318.105
317.347
316.585
315.821
315.053
314.281
313.504
312.72
311.93
322.622
321.867
321.112
320.355
319.598
318.839
318.078
317.316
316.55
315.782
315.011
314.235
313.455
312.666
311.863
322.62
321.861
321.102
320.341
319.58
318.817
318.053
317.286
316.517
315.746
314.971
314.193
313.41
312.624
311.833
322.619
321.856
321.092
320.328
319.563
318.797
318.029
317.259
316.487
315.712
314.934
314.153
313.37
312.585
311.805
322.617
321.85
321.084
320.316
319.548
318.778
318.006
317.233
316.458
315.68
314.9
314.116
313.33
312.542
311.75
322.615
321.846
321.075
320.305
319.533
318.76
317.986
317.209
316.431
315.65
314.867
314.081
313.292
312.502
311.714
322.614
321.841
321.068
320.294
319.519
318.743
317.966
317.187
316.406
315.623
314.837
314.048
313.256
312.46
311.654
322.612
321.837
321.06
320.284
319.506
318.728
317.948
317.166
316.382
315.597
314.809
314.018
313.223
312.425
311.623
322.611
321.832
321.054
320.274
319.494
318.713
317.931
317.146
316.361
315.573
314.783
313.99
313.194
312.393
311.582
322.61
321.829
321.047
320.266
319.483
318.699
317.915
317.128
316.34
315.551
314.759
313.964
313.168
312.368
311.564
322.608
321.825
321.042
320.257
319.473
318.687
317.9
317.112
316.322
315.53
314.737
313.941
313.144
312.345
311.549
322.607
321.822
321.036
320.25
319.463
318.675
317.886
317.096
316.304
315.511
314.716
313.92
313.121
312.321
311.519
322.606
321.819
321.031
320.243
319.454
318.664
317.874
317.082
316.288
315.494
314.697
313.899
313.1
312.3
311.501
322.605
321.816
321.026
320.236
319.446
318.654
317.862
317.068
316.274
315.477
314.68
313.88
313.08
312.277
311.472
322.605
321.813
321.022
320.23
319.438
318.645
317.851
317.056
316.26
315.462
314.663
313.863
313.06
312.257
311.454
322.604
321.811
321.018
320.225
319.431
318.636
317.841
317.045
316.247
315.448
314.648
313.846
313.043
312.236
311.425
322.603
321.809
321.014
320.22
319.425
318.629
317.832
317.034
316.236
315.436
314.635
313.832
313.027
312.22
311.411
322.602
321.807
321.011
320.215
319.419
318.621
317.824
317.025
316.225
315.424
314.622
313.818
313.013
312.205
311.393
322.602
321.805
321.008
320.211
319.413
318.615
317.816
317.016
316.215
315.414
314.611
313.807
313.001
312.194
311.385
322.601
321.803
321.005
320.207
319.408
318.609
317.809
317.008
316.207
315.404
314.601
313.796
312.991
312.184
311.378
322.601
321.802
321.003
320.203
319.404
318.603
317.803
317.001
316.199
315.396
314.592
313.787
312.981
312.174
311.366
322.6
321.8
321
320.2
319.4
318.599
317.797
316.995
316.192
315.388
314.584
313.778
312.972
312.165
311.359
322.6
321.799
320.998
320.197
319.396
318.594
317.792
316.989
316.185
315.381
314.576
313.77
312.964
312.156
311.348
322.599
321.798
320.996
320.195
319.393
318.59
317.787
316.984
316.18
315.375
314.569
313.763
312.956
312.149
311.341
322.599
321.797
320.995
320.192
319.39
318.587
317.783
316.979
316.175
315.369
314.564
313.757
312.949
312.141
311.331
322.599
321.796
320.993
320.19
319.387
318.584
317.78
316.975
316.17
315.365
314.558
313.751
312.944
312.135
311.326
322.598
321.795
320.992
320.189
319.385
318.581
317.776
316.972
316.166
315.36
314.554
313.747
312.939
312.13
311.319
322.598
321.795
320.991
320.187
319.383
318.578
317.774
316.968
316.163
315.357
314.55
313.743
312.935
312.126
311.317
322.598
321.794
320.99
320.186
319.381
318.576
317.771
316.966
316.16
315.354
314.547
313.739
312.931
312.123
311.315
322.598
321.794
320.989
320.185
319.38
318.575
317.769
316.964
316.158
315.351
314.544
313.737
312.929
312.12
311.312
322.598
321.793
320.989
320.184
319.379
318.574
317.768
316.962
316.156
315.349
314.542
313.734
312.926
312.118
311.31
322.598
321.793
320.988
320.183
319.378
318.573
317.767
316.961
316.154
315.347
314.54
313.733
312.925
312.116
311.307
322.598
321.793
320.988
320.183
319.377
318.572
317.766
316.96
316.153
315.346
314.539
313.731
312.923
312.115
311.306
322.598
321.793
320.988
320.182
319.377
318.571
317.766
316.959
316.153
315.346
314.538
313.731
312.923
312.114
311.305
322.598
321.793
320.988
320.182
319.377
318.571
317.765
316.959
316.153
315.346
314.538
313.73
312.922
312.114
311.305
322.598
321.793
320.988
320.182
319.377
318.572
317.766
316.959
316.153
315.346
314.539
313.731
312.923
312.114
311.305
322.598
321.793
320.988
320.183
319.378
318.572
317.766
316.96
316.154
315.347
314.539
313.732
312.923
312.115
311.305
322.598
321.793
320.988
320.183
319.378
318.573
317.767
316.961
316.155
315.348
314.541
313.733
312.925
312.116
311.306
322.598
321.793
320.989
320.184
319.379
318.574
317.769
316.963
316.156
315.35
314.542
313.735
312.926
312.118
311.308
322.598
321.794
320.99
320.185
319.381
318.576
317.77
316.965
316.159
315.352
314.545
313.737
312.929
312.12
311.31
322.598
321.794
320.99
320.186
319.382
318.577
317.772
316.967
316.161
315.355
314.548
313.74
312.932
312.124
311.314
322.598
321.795
320.991
320.188
319.384
318.58
317.775
316.97
316.164
315.358
314.551
313.744
312.936
312.128
311.318
322.599
321.796
320.993
320.189
319.386
318.582
317.778
316.973
316.168
315.362
314.556
313.748
312.941
312.133
311.325
322.599
321.797
320.994
320.191
319.388
318.585
317.781
316.977
316.172
315.367
314.56
313.754
312.946
312.138
311.329
322.599
321.798
320.996
320.194
319.391
318.589
317.785
316.981
316.177
315.372
314.566
313.759
312.952
312.144
311.337
322.6
321.799
320.998
320.196
319.395
318.592
317.79
316.986
316.182
315.378
314.572
313.766
312.958
312.15
311.34
322.6
321.8
321
320.199
319.398
318.597
317.795
316.992
316.189
315.384
314.579
313.773
312.965
312.156
311.345
322.6
321.801
321.002
320.202
319.402
318.602
317.8
316.998
316.196
315.392
314.587
313.781
312.974
312.165
311.355
322.601
321.803
321.004
320.206
319.407
318.607
317.807
317.005
316.203
315.4
314.596
313.791
312.984
312.175
311.363
322.601
321.804
321.007
320.21
319.411
318.613
317.813
317.013
316.212
315.41
314.606
313.802
312.995
312.188
311.379
322.602
321.806
321.01
320.214
319.417
318.619
317.821
317.022
316.222
315.42
314.618
313.814
313.008
312.201
311.39
322.603
321.808
321.014
320.218
319.423
318.626
317.829
317.031
316.232
315.432
314.63
313.827
313.023
312.217
311.413
322.604
321.81
321.017
320.224
319.429
318.634
317.838
317.042
316.244
315.444
314.644
313.841
313.038
312.233
311.427
322.604
321.813
321.021
320.229
319.436
318.643
317.848
317.053
316.256
315.458
314.658
313.857
313.054
312.25
311.448
322.605
321.815
321.026
320.235
319.444
318.652
317.859
317.065
316.27
315.473
314.674
313.874
313.071
312.266
311.46
322.606
321.818
321.03
320.242
319.452
318.662
317.871
317.079
316.285
315.489
314.692
313.892
313.09
312.284
311.472
322.607
321.821
321.035
320.249
319.461
318.673
317.884
317.093
316.301
315.507
314.711
313.913
313.112
312.307
311.499
322.608
321.825
321.041
320.256
319.471
318.685
317.898
317.109
316.319
315.527
314.732
313.936
313.136
312.332
311.52
322.609
321.828
321.047
320.264
319.482
318.698
317.913
317.126
316.338
315.548
314.756
313.961
313.163
312.363
311.56
322.611
321.832
321.053
320.273
319.493
318.711
317.929
317.144
316.359
315.571
314.781
313.988
313.193
312.395
311.588
322.612
321.836
321.06
320.283
319.505
318.726
317.946
317.164
316.381
315.595
314.808
314.018
313.226
312.433
311.644
322.613
321.84
321.067
320.293
319.518
318.742
317.964
317.185
316.404
315.621
314.836
314.049
313.26
312.469
311.676
322.615
321.845
321.075
320.303
319.531
318.758
317.984
317.208
316.43
315.649
314.867
314.082
313.295
312.507
311.726
322.617
321.85
321.083
320.315
319.546
318.776
318.005
317.232
316.456
315.679
314.899
314.116
313.331
312.542
311.75
322.618
321.855
321.091
320.327
319.562
318.795
318.027
317.257
316.485
315.711
314.933
314.153
313.369
312.579
311.776
322.62
321.861
321.101
320.34
319.578
318.815
318.051
317.284
316.515
315.744
314.97
314.193
313.411
312.624
311.833
322.622
321.866
321.11
320.353
319.596
318.836
318.076
317.313
316.548
315.78
315.01
314.236
313.457
312.673
311.875
322.624
321.873
321.121
320.368
319.614
318.859
318.102
317.343
316.582
315.818
315.052
314.282
313.508
312.731
311.952
322.626
321.879
321.131
320.383
319.634
318.883
318.13
317.375
316.618
315.859
315.096
314.331
313.562
312.79
312.005
322.629
321.886
321.143
320.399
319.654
318.908
318.159
317.409
316.656
315.901
315.143
314.382
313.619
312.857
312.105
322.631
321.893
321.155
320.416
319.676
318.934
318.191
317.445
316.697
315.946
315.192
314.435
313.676
312.918
312.159
322.634
321.901
321.168
320.433
319.698
318.962
318.223
317.482
316.739
315.992
315.242
314.489
313.734
312.98
312.238
322.636
321.909
321.181
320.452
319.722
318.991
318.258
317.522
316.784
316.042
315.296
314.545
313.791
313.033
312.275
322.639
321.917
321.194
320.471
319.747
319.021
318.294
317.564
316.831
316.094
315.352
314.604
313.85
313.086
312.31
322.642
321.925
321.209
320.491
319.773
319.053
318.332
317.608
316.881
316.15
315.413
314.669
313.915
313.149
312.377
322.645
321.934
321.223
320.512
319.8
319.086
318.371
317.654
316.934
316.21
315.479
314.74
313.988
313.217
312.421
322.648
321.943
321.238
320.533
319.828
319.121
318.413
317.703
316.99
316.274
315.552
314.821
314.075
313.303
312.487
322.651
321.952
321.254
320.555
319.856
319.156
318.456
317.754
317.05
316.343
315.631
314.912
314.179
313.419
312.59
293.376
292.548
291.791
291.062
290.346
289.637
288.933
288.232
287.532
286.833
286.136
285.439
284.742
284.045
283.348
293.473
292.658
291.89
291.149
290.422
289.703
288.99
288.281
287.574
286.868
286.164
285.46
284.757
284.054
283.351
293.524
292.735
291.971
291.225
290.492
289.766
289.045
288.328
287.614
286.902
286.191
285.481
284.772
284.063
283.354
293.555
292.794
292.04
291.294
290.556
289.824
289.097
288.374
287.653
286.934
286.217
285.501
284.786
284.071
283.357
293.588
292.849
292.102
291.356
290.615
289.879
289.146
288.417
287.69
286.966
286.243
285.521
284.8
284.08
283.36
293.655
292.908
292.162
291.416
290.672
289.931
289.193
288.459
287.726
286.996
286.267
285.54
284.814
284.088
283.363
293.703
292.968
292.222
291.473
290.726
289.981
289.238
288.498
287.761
287.025
286.291
285.559
284.827
284.096
283.365
293.792
293.036
292.283
291.53
290.778
290.028
289.281
288.536
287.794
287.053
286.314
285.576
284.839
284.103
283.368
293.851
293.102
292.344
291.585
290.828
290.074
289.322
288.572
287.825
287.08
286.336
285.593
284.852
284.111
283.37
293.959
293.175
292.405
291.639
290.877
290.118
289.361
288.607
287.855
287.105
286.357
285.609
284.863
284.118
283.372
294.016
293.238
292.462
291.691
290.924
290.16
289.399
288.64
287.884
287.129
286.376
285.625
284.874
284.124
283.375
294.097
293.299
292.516
291.739
290.967
290.199
289.434
288.671
287.911
287.152
286.395
285.639
284.885
284.13
283.377
294.141
293.35
292.565
291.784
291.009
290.237
289.468
288.701
287.937
287.174
286.413
285.653
284.895
284.136
283.379
294.201
293.398
292.609
291.826
291.047
290.272
289.499
288.729
287.961
287.195
286.43
285.667
284.904
284.142
283.381
294.228
293.437
292.649
291.864
291.083
290.305
289.529
288.755
287.984
287.214
286.446
285.679
284.913
284.148
283.382
294.254
293.473
292.686
291.9
291.117
290.336
289.557
288.78
288.006
287.233
286.461
285.691
284.921
284.153
283.384
294.305
293.513
292.723
291.935
291.149
290.365
289.583
288.804
288.026
287.25
286.475
285.702
284.929
284.157
283.386
294.339
293.55
292.758
291.967
291.178
290.392
289.608
288.826
288.045
287.266
286.489
285.712
284.937
284.162
283.387
294.397
293.59
292.792
291.998
291.207
290.418
289.631
288.846
288.063
287.281
286.501
285.722
284.944
284.166
283.389
294.427
293.624
292.824
292.027
291.233
290.441
289.652
288.865
288.08
287.296
286.513
285.731
284.95
284.17
283.39
294.468
293.656
292.853
292.053
291.257
290.464
289.672
288.883
288.095
287.309
286.524
285.74
284.956
284.174
283.391
294.49
293.682
292.878
292.077
291.279
290.484
289.691
288.899
288.11
287.321
286.534
285.748
284.962
284.177
283.392
294.519
293.706
292.9
292.099
291.299
290.503
289.708
288.915
288.123
287.333
286.543
285.755
284.967
284.18
283.393
294.531
293.725
292.92
292.118
291.318
290.52
289.723
288.929
288.135
287.343
286.552
285.762
284.972
284.183
283.394
294.543
293.742
292.938
292.136
291.335
290.535
289.738
288.942
288.147
287.353
286.56
285.768
284.977
284.186
283.395
294.566
293.76
292.955
292.152
291.35
290.55
289.751
288.953
288.157
287.362
286.568
285.774
284.981
284.188
283.396
294.58
293.776
292.971
292.167
291.364
290.563
289.763
288.964
288.167
287.37
286.574
285.779
284.985
284.191
283.397
294.604
293.793
292.986
292.181
291.377
290.575
289.774
288.974
288.175
287.378
286.581
285.784
284.988
284.193
283.398
294.616
293.807
293
292.193
291.389
290.586
289.784
288.983
288.183
287.384
286.586
285.789
284.992
284.195
283.398
294.633
293.82
293.012
292.205
291.4
290.596
289.793
288.991
288.191
287.391
286.591
285.793
284.994
284.197
283.399
294.641
293.831
293.022
292.215
291.409
290.605
289.801
288.999
288.197
287.396
286.596
285.796
284.997
284.198
283.399
294.652
293.84
293.031
292.224
291.418
290.613
289.809
289.005
288.203
287.401
286.6
285.8
285
284.2
283.4
294.656
293.847
293.039
292.231
291.425
290.62
289.815
289.011
288.208
287.406
286.604
285.803
285.002
284.201
283.4
294.66
293.853
293.045
292.238
291.432
290.626
289.821
289.017
288.213
287.41
286.608
285.805
285.004
284.202
283.401
294.668
293.86
293.052
292.244
291.438
290.632
289.826
289.021
288.217
287.414
286.611
285.808
285.005
284.203
283.401
294.673
293.865
293.057
292.25
291.443
290.636
289.831
289.026
288.221
287.417
286.613
285.81
285.007
284.204
283.401
294.68
293.871
293.062
292.254
291.447
290.641
289.835
289.029