/*--------------------------------*- C++ -*----------------------------------*\
| =========                 |                                                 |
| \\      /  F ield         | OpenFOAM: The Open Source CFD Toolbox           |
|  \\    /   O peration     | Version:  5.x                                   |
|   \\  /    A nd           | Web:      www.OpenFOAM.org                      |
|    \\/     M anipulation  |                                                 |
\*---------------------------------------------------------------------------*/
FoamFile
{
    version     2.0;
    format      ascii;
    class       volScalarField;
    location    "4.1";
    object      gradTx;
}
// * * * * * * * * * * * * * * * * * * * * * * * * * * * * * * * * * * * * * //

dimensions      [0 -1 0 1 0 0 0];

internalField   nonuniform List<scalar> 
6300
(
-49.4679
-49.4487
-49.4104
-49.3526
-49.2754
-49.1784
-49.0619
-48.9257
-48.7704
-48.5967
-48.4055
-48.1984
-47.9767
-47.7423
-47.4965
-49.4873
-49.4682
-49.43
-49.3724
-49.2953
-49.1984
-49.0817
-48.9451
-48.7892
-48.6144
-48.4219
-48.2131
-47.9898
-47.754
-47.5073
-49.5261
-49.5071
-49.4692
-49.412
-49.3352
-49.2385
-49.1215
-48.9843
-48.827
-48.6501
-48.4548
-48.2426
-48.0158
-47.7769
-47.5282
-49.584
-49.5654
-49.528
-49.4714
-49.3953
-49.299
-49.182
-49.0439
-48.8846
-48.7046
-48.5047
-48.2871
-48.0543
-47.8098
-47.5572
-49.6608
-49.6426
-49.6061
-49.5508
-49.4758
-49.3805
-49.2638
-49.1249
-48.9634
-48.7791
-48.5729
-48.347
-48.1047
-47.851
-47.5915
-49.756
-49.7386
-49.7034
-49.6499
-49.5771
-49.4836
-49.3681
-49.229
-49.0651
-48.8757
-48.6611
-48.4235
-48.167
-47.8984
-47.6265
-49.8688
-49.8525
-49.8194
-49.7687
-49.6992
-49.609
-49.4961
-49.3581
-49.1927
-48.9978
-48.7728
-48.5191
-48.2416
-47.9495
-47.6562
-49.9982
-49.9834
-49.9532
-49.9067
-49.8421
-49.7574
-49.6495
-49.515
-49.3499
-49.1503
-48.9134
-48.6388
-48.3311
-48.0021
-47.672
-50.1427
-50.1299
-50.1037
-50.0629
-50.0056
-49.9292
-49.8298
-49.7027
-49.5419
-49.3406
-49.092
-48.7919
-48.4421
-48.0561
-47.6633
-50.3003
-50.29
-50.269
-50.2358
-50.1885
-50.1241
-50.0381
-49.9245
-49.7747
-49.5782
-49.3224
-48.9948
-48.5896
-48.1172
-47.618
-50.4684
-50.4613
-50.4466
-50.4231
-50.3889
-50.3409
-50.2744
-50.1825
-50.0546
-49.8756
-49.6246
-49.2758
-48.8045
-48.2054
-47.5258
-50.6438
-50.6404
-50.6332
-50.6214
-50.6033
-50.5764
-50.5365
-50.4767
-50.3858
-50.2451
-50.0248
-49.6793
-49.1475
-48.3744
-47.3855
-50.8229
-50.8236
-50.8248
-50.8261
-50.8267
-50.8251
-50.8187
-50.8024
-50.7669
-50.6945
-50.5505
-50.2693
-49.7319
-48.7595
-47.2266
-51.0016
-51.0066
-51.0166
-51.0318
-51.0526
-51.079
-51.1109
-51.1474
-51.1853
-51.2155
-51.2138
-51.1156
-50.7515
-49.7056
-47.1978
-51.1756
-51.1847
-51.2034
-51.2324
-51.2731
-51.3275
-51.3988
-51.4912
-51.6114
-51.7685
-51.9737
-52.2281
-52.4535
-52.114
-48.191
-47.2624
-47.0415
-46.813
-46.5756
-46.3279
-46.0681
-45.7941
-45.504
-45.1963
-44.8697
-44.5241
-44.1597
-43.7775
-43.3792
-42.9668
-42.5428
-42.1098
-41.6705
-41.2278
-40.7845
-40.3436
-39.9079
-39.48
-39.0624
-38.6574
-38.2666
-37.8915
-37.5331
-37.192
-36.8683
-36.5619
-36.272
-35.9979
-35.7384
-35.4922
-35.258
-35.0343
-34.8198
-34.6131
-34.4131
-34.2185
-34.0283
-33.8416
-33.6578
-33.4765
-33.2978
-33.1221
-32.9501
-32.7831
-32.6222
-32.4691
-32.3249
-32.1911
-32.0689
-31.9589
-31.862
-31.7784
-31.7084
-31.6517
-31.608
-31.577
-31.5581
-31.5508
-31.5547
-31.5693
-31.5943
-31.6296
-31.6749
-31.73
-31.7949
-31.8695
-31.9537
-32.0475
-32.151
-32.2643
-32.3876
-32.5208
-32.664
-32.8172
-32.9801
-33.1527
-33.3345
-33.5254
-33.7248
-33.932
-34.1463
-34.3664
-34.591
-34.8182
-35.0461
-47.2731
-47.053
-46.8259
-46.5907
-46.3457
-46.0888
-45.8176
-45.5298
-45.2236
-44.8976
-44.5515
-44.1856
-43.8011
-43.3997
-42.9839
-42.5561
-42.1191
-41.6757
-41.2289
-40.7815
-40.3365
-39.8969
-39.4655
-39.0448
-38.6371
-38.2443
-37.8678
-37.5086
-37.1672
-36.8438
-36.5382
-36.2496
-35.9771
-35.7195
-35.4753
-35.243
-35.0213
-34.8087
-34.6038
-34.4054
-34.2123
-34.0234
-33.8376
-33.6543
-33.473
-33.2936
-33.1167
-32.9432
-32.7742
-32.6113
-32.456
-32.31
-32.1746
-32.051
-31.9402
-31.8427
-31.759
-31.689
-31.6328
-31.5898
-31.5595
-31.5413
-31.5346
-31.539
-31.554
-31.5794
-31.6149
-31.6604
-31.7158
-31.7808
-31.8554
-31.9395
-32.0332
-32.1365
-32.2497
-32.3728
-32.5061
-32.6494
-32.8027
-32.9659
-33.1389
-33.3212
-33.5127
-33.713
-33.9215
-34.1375
-34.3596
-34.5866
-34.8167
-35.0477
-47.2936
-47.0749
-46.8509
-46.6203
-46.3811
-46.1305
-45.8653
-45.5826
-45.2796
-44.9549
-44.6077
-44.2386
-43.8492
-43.4416
-43.0186
-42.5831
-42.138
-41.6864
-41.2311
-40.7753
-40.322
-39.8745
-39.4358
-39.0087
-38.5957
-38.1988
-37.8195
-37.4586
-37.1168
-36.7941
-36.4903
-36.2044
-35.9352
-35.6815
-35.4413
-35.2132
-34.9955
-34.7866
-34.5854
-34.3904
-34.2004
-34.0141
-33.8303
-33.6481
-33.4667
-33.2861
-33.1067
-32.9297
-32.7566
-32.5893
-32.4298
-32.2798
-32.1411
-32.0149
-31.9021
-31.8036
-31.7195
-31.65
-31.5947
-31.553
-31.5243
-31.5076
-31.5024
-31.5078
-31.5237
-31.5496
-31.5856
-31.6315
-31.6872
-31.7525
-31.8272
-31.9112
-32.0046
-32.1076
-32.2204
-32.3432
-32.4764
-32.6199
-32.7736
-32.9374
-33.111
-33.2942
-33.487
-33.689
-33.8999
-34.1191
-34.3454
-34.5775
-34.8132
-35.0505
-47.3215
-47.1047
-46.8856
-46.6628
-46.4333
-46.1935
-45.9388
-45.6647
-45.3675
-45.0448
-44.6958
-44.3214
-43.9237
-43.506
-43.0716
-42.6242
-42.1668
-41.7026
-41.2345
-40.7657
-40.2996
-39.8398
-39.3897
-38.9527
-38.5316
-38.1285
-37.7448
-37.3815
-37.0392
-36.7177
-36.4167
-36.1352
-35.8716
-35.624
-35.3904
-35.1687
-34.957
-34.7539
-34.5581
-34.3683
-34.1832
-34.0013
-33.821
-33.6407
-33.4594
-33.2768
-33.0934
-32.9107
-32.7308
-32.5563
-32.3898
-32.2335
-32.0895
-31.9592
-31.8436
-31.7435
-31.6591
-31.5903
-31.5368
-31.4976
-31.4715
-31.4575
-31.4544
-31.4615
-31.4785
-31.5052
-31.5418
-31.5883
-31.6446
-31.7104
-31.7853
-31.8692
-31.962
-32.0642
-32.1761
-32.2985
-32.4315
-32.5753
-32.7297
-32.8943
-33.0689
-33.2532
-33.4474
-33.6516
-33.8659
-34.0899
-34.3226
-34.5624
-34.8073
-35.0544
-47.353
-47.1383
-46.9262
-46.715
-46.5009
-46.2783
-46.0404
-45.7804
-45.4924
-45.1729
-44.8209
-44.4379
-44.0276
-43.5946
-43.1439
-42.6798
-42.2058
-41.7247
-41.2393
-40.7527
-40.2686
-39.7913
-39.3251
-38.8743
-38.4419
-38.0304
-37.641
-37.2747
-36.9317
-36.6121
-36.3155
-36.0405
-35.7851
-35.5468
-35.3227
-35.1099
-34.9065
-34.711
-34.5223
-34.3397
-34.1617
-33.9866
-33.8118
-33.635
-33.4542
-33.2687
-33.0792
-32.8876
-32.6973
-32.5118
-32.3349
-32.1696
-32.0183
-31.8823
-31.7629
-31.6607
-31.576
-31.5087
-31.4581
-31.423
-31.4014
-31.3915
-31.3916
-31.4008
-31.419
-31.4463
-31.4835
-31.5308
-31.5881
-31.6548
-31.7302
-31.8138
-31.9056
-32.0062
-32.1166
-32.2379
-32.3707
-32.5151
-32.6706
-32.8365
-33.0122
-33.1975
-33.393
-33.5994
-33.8175
-34.0475
-34.2889
-34.5398
-34.7976
-35.0589
-47.3818
-47.1687
-46.9658
-46.7717
-46.5811
-46.3856
-46.1744
-45.9366
-45.6631
-45.3483
-44.991
-44.5942
-44.1644
-43.7092
-43.2359
-42.7501
-42.2553
-41.7535
-41.2463
-40.7364
-40.2282
-39.727
-39.2389
-38.7695
-38.3226
-37.9006
-37.5045
-37.1345
-36.7909
-36.4739
-36.1833
-35.9177
-35.6745
-35.4496
-35.2387
-35.038
-34.8449
-34.6583
-34.4782
-34.3046
-34.1364
-33.9714
-33.8057
-33.635
-33.456
-33.2667
-33.068
-32.863
-32.6568
-32.4551
-32.2634
-32.0857
-31.9247
-31.7817
-31.6575
-31.5526
-31.4677
-31.4028
-31.3572
-31.3287
-31.3143
-31.3108
-31.3155
-31.3272
-31.3459
-31.3731
-31.4104
-31.4586
-31.5177
-31.5864
-31.663
-31.7464
-31.8363
-31.9338
-32.0412
-32.1604
-32.2928
-32.4385
-32.5962
-32.7642
-32.9412
-33.1269
-33.3224
-33.5298
-33.7514
-33.9885
-34.2409
-34.5067
-34.7824
-35.0633
-47.3986
-47.1845
-46.9931
-46.8236
-46.6688
-46.5157
-46.347
-46.1446
-45.8937
-45.5853
-45.2181
-44.7985
-44.3381
-43.8501
-43.3462
-42.8338
-42.3154
-41.7903
-41.2574
-40.7183
-40.1779
-39.6441
-39.1263
-38.6325
-38.1678
-37.7341
-37.3307
-36.9567
-36.6121
-36.2981
-36.0154
-35.7632
-35.5376
-35.3324
-35.1403
-34.9553
-34.7741
-34.5966
-34.4251
-34.2617
-34.1069
-33.9574
-33.8068
-33.6474
-33.4725
-33.2784
-33.0659
-32.8402
-32.6099
-32.3842
-32.1717
-31.9779
-31.8052
-31.654
-31.524
-31.4158
-31.3305
-31.2693
-31.2315
-31.2139
-31.2114
-31.2181
-31.2293
-31.243
-31.2605
-31.2852
-31.3211
-31.3705
-31.4332
-31.5062
-31.5859
-31.6692
-31.7555
-31.847
-31.9482
-32.0634
-32.1954
-32.3441
-32.5065
-32.6786
-32.8572
-33.0416
-33.2341
-33.4394
-33.6624
-33.9069
-34.1732
-34.4589
-34.759
-35.067
-47.3892
-47.1679
-46.9893
-46.8546
-46.7546
-46.6687
-46.5683
-46.423
-46.2075
-45.9071
-45.5211
-45.0621
-44.5518
-44.0143
-43.4692
-42.9266
-42.3855
-41.8385
-41.278
-40.7024
-40.1183
-39.5387
-38.9794
-38.4538
-37.9688
-37.5241
-37.1149
-36.7369
-36.3898
-36.0772
-35.8039
-35.5706
-35.3718
-35.1966
-35.032
-34.8675
-34.6983
-34.5267
-34.3602
-34.2068
-34.0699
-33.945
-33.8208
-33.6824
-33.5169
-33.3167
-33.0829
-32.8244
-32.5561
-32.2945
-32.0531
-31.8396
-31.6549
-31.4958
-31.3593
-31.2458
-31.1586
-31.1019
-31.0765
-31.0774
-31.0952
-31.1187
-31.1392
-31.1533
-31.1645
-31.181
-31.2121
-31.2632
-31.3334
-31.4162
-31.5032
-31.5873
-31.6668
-31.7461
-31.8346
-31.9418
-32.0738
-32.2295
-32.4023
-32.5831
-32.7645
-32.9443
-33.1272
-33.3228
-33.5422
-33.7932
-34.0772
-34.3899
-34.7236
-35.0688
-47.3322
-47.0903
-46.9224
-46.8359
-46.8203
-46.8428
-46.8545
-46.803
-46.644
-46.3525
-45.9294
-45.3999
-44.8051
-44.1898
-43.5891
-43.0174
-42.4645
-41.9065
-41.3207
-40.6992
-40.0524
-39.4044
-38.7845
-38.217
-37.7122
-37.2633
-36.8544
-36.4729
-36.1178
-35.8004
-35.535
-35.3285
-35.1724
-35.0458
-34.9239
-34.7866
-34.6261
-34.4497
-34.2767
-34.1284
-34.0159
-33.932
-33.8551
-33.7567
-33.6112
-33.4038
-33.1353
-32.8227
-32.493
-32.1756
-31.8944
-31.6599
-31.4676
-31.3049
-31.1617
-31.0377
-30.9427
-30.8894
-30.8833
-30.9166
-30.9706
-31.0235
-31.0579
-31.0677
-31.0606
-31.0557
-31.074
-31.128
-31.215
-31.3202
-31.4242
-31.5117
-31.5779
-31.6319
-31.6934
-31.7844
-31.9175
-32.09
-32.2864
-32.4864
-32.6736
-32.8423
-33.0014
-33.1714
-33.3762
-33.6315
-33.9394
-34.2904
-34.6711
-35.0678
-47.1966
-46.9063
-46.7384
-46.7152
-46.8316
-47.0326
-47.2322
-47.3378
-47.2714
-46.9879
-46.4911
-45.8319
-45.0883
-44.3446
-43.6675
-43.0812
-42.5514
-42.0146
-41.4152
-40.7329
-39.9885
-39.2297
-38.5143
-37.8902
-37.3755
-36.9451
-36.5548
-36.1709
-35.7921
-35.4487
-35.1816
-35.0142
-34.9306
-34.8884
-34.838
-34.7396
-34.577
-34.3678
-34.1578
-33.9988
-33.9206
-33.9092
-33.9205
-33.8989
-33.795
-33.5787
-33.2515
-32.8458
-32.412
-32.0048
-31.6683
-31.4194
-31.2377
-31.086
-30.9363
-30.7878
-30.6669
-30.6089
-30.6334
-30.7257
-30.8475
-30.9547
-31.0121
-31.0062
-30.9535
-30.8967
-30.8842
-30.945
-31.0703
-31.2255
-31.3688
-31.4666
-31.5065
-31.5063
-31.5098
-31.5659
-31.7043
-31.9158
-32.1649
-32.4078
-32.6089
-32.7538
-32.8593
-32.9698
-33.1368
-33.394
-33.7389
-34.1479
-34.5952
-35.0628
-46.9366
-46.5465
-46.3462
-46.3938
-46.721
-47.2245
-47.7456
-48.1206
-48.2118
-47.9308
-47.2869
-46.3855
-45.3719
-44.4038
-43.6155
-43.0639
-42.6485
-42.2134
-41.6292
-40.8561
-39.9456
-38.9931
-38.1127
-37.4061
-36.9177
-36.5695
-36.246
-35.862
-35.4157
-34.9874
-34.6847
-34.5793
-34.6295
-34.7432
-34.8214
-34.785
-34.5954
-34.2871
-33.9656
-33.7532
-33.7291
-33.8539
-34.0332
-34.1599
-34.1406
-33.9133
-33.4808
-32.9095
-32.2926
-31.7322
-31.3162
-31.0824
-30.9644
-30.8641
-30.7091
-30.4981
-30.3005
-30.2093
-30.2859
-30.4921
-30.7454
-30.9574
-31.0575
-31.0117
-30.852
-30.6739
-30.5887
-30.6691
-30.8822
-31.1479
-31.3786
-31.5045
-31.4924
-31.3752
-31.2499
-31.2288
-31.3857
-31.6873
-32.0519
-32.389
-32.6249
-32.7217
-32.7098
-32.6866
-32.7674
-33.0298
-33.4457
-33.9499
-34.4898
-35.0502
-46.4807
-45.9138
-45.5973
-45.6702
-46.357
-47.3915
-48.4695
-49.3121
-49.6886
-49.3966
-48.4539
-47.1013
-45.5902
-44.2045
-43.2227
-42.851
-42.7741
-42.6272
-42.1156
-41.1777
-39.9635
-38.6528
-37.4613
-36.6081
-36.2583
-36.1587
-36.0244
-35.6432
-35.0137
-34.3455
-33.9042
-33.9205
-34.2371
-34.6494
-34.9699
-35.0516
-34.7847
-34.2258
-33.6163
-33.2367
-33.3232
-33.7204
-34.2218
-34.6314
-34.7859
-34.5436
-33.9101
-33.0391
-32.092
-31.2517
-30.7017
-30.5784
-30.6657
-30.7211
-30.5625
-30.1891
-29.7807
-29.5681
-29.7516
-30.1904
-30.7028
-31.1208
-31.3129
-31.1811
-30.7767
-30.3171
-30.0545
-30.2016
-30.6183
-31.1205
-31.5388
-31.7411
-31.6292
-31.2556
-30.8393
-30.6352
-30.8581
-31.3676
-31.9781
-32.5156
-32.841
-32.8455
-32.5763
-32.253
-32.1359
-32.4443
-33.0252
-33.7
-34.3548
-35.0119
-45.6778
-44.921
-44.2881
-44.0634
-45.4931
-47.4962
-49.5329
-51.1753
-52.1285
-51.7998
-50.2118
-48.0455
-45.6288
-43.4239
-41.952
-42.214
-43.0011
-43.5664
-43.2165
-41.8974
-40.1211
-38.1414
-36.3231
-35.0859
-35.2389
-35.7981
-36.1589
-35.7823
-34.668
-33.3772
-32.4653
-32.8298
-33.7073
-34.6882
-35.4626
-35.8206
-35.3949
-34.2377
-32.9365
-32.0494
-32.4701
-33.4372
-34.5429
-35.4703
-36.0028
-35.7375
-34.6816
-33.2783
-31.7378
-30.3532
-29.4731
-29.7713
-30.4128
-30.8862
-30.7253
-29.9304
-28.9788
-28.3567
-28.8495
-29.7826
-30.7962
-31.6093
-32.0347
-31.7425
-30.7809
-29.6762
-28.93
-29.3456
-30.2309
-31.2134
-32.0096
-32.4296
-32.1426
-31.1969
-30.1228
-29.4263
-29.9173
-30.9022
-32.0088
-32.9472
-33.5186
-33.3627
-32.5202
-31.522
-30.8911
-31.4657
-32.4688
-33.4786
-34.2158
-34.8516
-43.97
-43.7499
-42.3912
-40.0738
-43.8035
-47.553
-51.1643
-54.0312
-56.4147
-56.0166
-52.8026
-49.3508
-45.3626
-41.5878
-38.1849
-40.8209
-43.548
-45.824
-45.7134
-43.2757
-40.5719
-37.3977
-34.3482
-31.5621
-33.635
-35.7235
-37.3556
-36.9838
-34.5768
-31.8634
-29.1885
-31.0005
-33.029
-35.0246
-36.5551
-37.7185
-37.0586
-34.457
-31.6607
-28.979
-30.8302
-32.9548
-35.1207
-36.8782
-38.3687
-38.0699
-35.9533
-33.7154
-31.1589
-28.7282
-26.5477
-28.4699
-30.402
-31.9648
-31.8009
-29.8973
-27.7023
-25.5398
-27.3131
-29.2587
-31.178
-32.6559
-33.7894
-33.2679
-30.9907
-28.519
-26.1324
-27.8132
-29.703
-31.5743
-33.022
-34.1358
-33.6043
-31.3226
-28.8623
-26.507
-28.2652
-30.261
-32.2814
-33.9067
-35.2432
-34.8683
-32.688
-30.2619
-27.9102
-29.8697
-31.9025
-33.6491
-34.2225
-34.0778
-38.3439
-44.2183
-41.8753
-27.3771
-42.0856
-47.8092
-53.868
-57.5838
-64.7067
-64.289
-55.7364
-51.4289
-44.7895
-39.2168
-25.7219
-39.2973
-44.7447
-51.519
-51.5615
-45.0377
-41.7005
-36.4749
-31.9944
-21.0419
-32.0088
-36.3065
-41.4384
-41.1163
-34.9273
-30.2946
-19.4507
-28.8597
-32.3985
-36.0312
-38.1767
-42.2422
-41.5187
-34.957
-30.2201
-19.3815
-28.797
-32.4129
-36.287
-38.671
-43.3111
-43.0203
-37.4
-34.6114
-30.3991
-26.7431
-17.7143
-27.1543
-30.923
-35.5299
-35.3818
-30.2838
-26.3788
-17.0555
-25.5284
-28.7726
-32.1954
-34.1982
-37.9271
-37.3212
-31.4804
-27.2391
-17.4774
-25.9794
-29.2016
-32.5446
-34.5148
-38.211
-37.5856
-31.7051
-27.45
-17.6641
-26.2704
-29.584
-33.1223
-35.2816
-39.4319
-38.973
-33.2094
-28.894
-18.7209
-28.1675
-31.7478
-35.5087
-35.2621
-30.0961
-35.2951
-35.5617
-35.8192
-36.0644
-36.2943
-36.5067
-36.6998
-36.8723
-37.0236
-37.1531
-37.2609
-37.3468
-37.4111
-37.4539
-37.4752
-35.3001
-35.5702
-35.8311
-36.0792
-36.3114
-36.5256
-36.7199
-36.8932
-37.0448
-37.1745
-37.2822
-37.3681
-37.4322
-37.4748
-37.4961
-35.3099
-35.5876
-35.8553
-36.1092
-36.3462
-36.5638
-36.7604
-36.9352
-37.0875
-37.2174
-37.325
-37.4105
-37.4743
-37.5167
-37.5378
-35.325
-35.6145
-35.8928
-36.1557
-36.3997
-36.6225
-36.8225
-36.9991
-37.1523
-37.2822
-37.3893
-37.4742
-37.5374
-37.5793
-37.6001
-35.3456
-35.652
-35.9454
-36.2207
-36.4741
-36.7034
-36.9074
-37.0861
-37.2397
-37.3692
-37.4755
-37.5592
-37.6214
-37.6624
-37.6829
-35.3724
-35.7019
-36.0155
-36.307
-36.5721
-36.809
-37.0173
-37.1975
-37.3509
-37.4791
-37.5835
-37.6654
-37.7259
-37.7658
-37.7856
-35.4065
-35.7672
-36.1074
-36.419
-36.698
-36.9429
-37.1546
-37.3351
-37.4869
-37.6123
-37.7136
-37.7926
-37.8506
-37.8887
-37.9076
-35.45
-35.8528
-36.2272
-36.5634
-36.8574
-37.1094
-37.3227
-37.5011
-37.6487
-37.7692
-37.8656
-37.9401
-37.9947
-38.0304
-38.0481
-35.5065
-35.9663
-36.3848
-36.7497
-37.0583
-37.3145
-37.5251
-37.6973
-37.8371
-37.9497
-38.0388
-38.1073
-38.1571
-38.1897
-38.2058
-35.5822
-36.1208
-36.5958
-36.9919
-37.3113
-37.5649
-37.7657
-37.9253
-38.0523
-38.153
-38.2321
-38.2925
-38.3364
-38.365
-38.3791
-35.6864
-36.3387
-36.8852
-37.3104
-37.6298
-37.868
-38.0476
-38.1856
-38.2932
-38.3776
-38.4435
-38.4939
-38.5304
-38.5543
-38.566
-35.8316
-36.6619
-37.2953
-37.734
-38.029
-38.2294
-38.3712
-38.4762
-38.5569
-38.6202
-38.67
-38.7084
-38.7366
-38.7551
-38.7643
-36.0348
-37.1811
-37.8994
-38.3
-38.521
-38.6492
-38.7315
-38.7909
-38.8376
-38.8759
-38.9075
-38.9328
-38.9519
-38.9647
-38.9712
-36.3658
-38.1277
-38.8224
-39.0457
-39.1044
-39.114
-39.1146
-39.1182
-39.1265
-39.1379
-39.1506
-39.1628
-39.173
-39.1803
-39.1841
-37.4339
-40.1399
-40.216
-39.9561
-39.7354
-39.587
-39.4947
-39.4409
-39.4119
-39.3983
-39.3938
-39.3941
-39.3964
-39.3988
-39.4003
-51.3269
-51.3395
-51.3653
-51.4057
-51.4628
-51.5402
-51.6434
-51.7812
-51.9683
-52.2316
-52.6253
-53.2748
-54.532
-57.6066
-67.5071
-51.4559
-51.4712
-51.5026
-51.5517
-51.6213
-51.7158
-51.8419
-52.0105
-52.2398
-52.5623
-53.0402
-53.8048
-55.1599
-57.8595
-63.773
-51.5745
-51.592
-51.6278
-51.6838
-51.7628
-51.8695
-52.0109
-52.1977
-52.4468
-52.7851
-53.2563
-53.9253
-54.8543
-55.8808
-55.2837
-51.6811
-51.7002
-51.7392
-51.7999
-51.8852
-51.9993
-52.1486
-52.3418
-52.5918
-52.9159
-53.3353
-53.8655
-54.481
-55.0295
-55.237
-51.7745
-51.7947
-51.8357
-51.8992
-51.9877
-52.1049
-52.2556
-52.4465
-52.6853
-52.9807
-53.3378
-53.7467
-54.1545
-54.4154
-54.2034
-51.8542
-51.8749
-51.9168
-51.9813
-52.0706
-52.1872
-52.3349
-52.5177
-52.7396
-53.003
-53.3048
-53.6286
-53.9299
-54.13
-54.1489
-51.9198
-51.9404
-51.9823
-52.0465
-52.1344
-52.2482
-52.3899
-52.5618
-52.7651
-52.9989
-53.2574
-53.5261
-53.7757
-53.9709
-54.1051
-51.9711
-51.9915
-52.0326
-52.0953
-52.1806
-52.2897
-52.4239
-52.584
-52.7694
-52.9779
-53.2038
-53.4366
-53.6593
-53.8544
-53.9881
-52.0084
-52.0282
-52.0681
-52.1286
-52.2104
-52.314
-52.4401
-52.5884
-52.7577
-52.9452
-53.1462
-53.3542
-53.5621
-53.7811
-54.1259
-52.0321
-52.0512
-52.0895
-52.1473
-52.2251
-52.3229
-52.4408
-52.5781
-52.7332
-52.9033
-53.0845
-53.2719
-53.4571
-53.6206
-53.624
-52.0428
-52.061
-52.0975
-52.1524
-52.2259
-52.3179
-52.428
-52.5554
-52.6982
-52.8539
-53.0192
-53.191
-53.3672
-53.5718
-53.9993
-52.0409
-52.0582
-52.0928
-52.1448
-52.2141
-52.3004
-52.4034
-52.5218
-52.6542
-52.798
-52.9503
-53.1069
-53.2575
-53.3686
-53.2221
-52.0272
-52.0436
-52.0763
-52.1253
-52.1905
-52.2716
-52.3679
-52.4786
-52.6021
-52.7365
-52.8793
-53.027
-53.175
-53.3447
-53.7885
-52.0023
-52.0177
-52.0486
-52.0948
-52.1561
-52.2322
-52.3226
-52.4264
-52.5424
-52.6693
-52.8054
-52.947
-53.0776
-53.1307
-52.7645
-51.9668
-51.9813
-52.0104
-52.0539
-52.1116
-52.1831
-52.2679
-52.3655
-52.475
-52.596
-52.7286
-52.8744
-53.034
-53.2082
-53.3809
-51.9213
-51.935
-51.9624
-52.0033
-52.0575
-52.1247
-52.2045
-52.2963
-52.3997
-52.5147
-52.6433
-52.7922
-52.9802
-53.2871
-54.1155
-51.8664
-51.8793
-51.9051
-51.9436
-51.9946
-52.0578
-52.1328
-52.219
-52.3161
-52.4241
-52.5447
-52.6828
-52.8438
-53.0042
-52.7974
-51.8026
-51.8148
-51.839
-51.8753
-51.9233
-51.9828
-52.0532
-52.1341
-52.2248
-52.3248
-52.4346
-52.5575
-52.7079
-52.9764
-53.9602
-51.7305
-51.742
-51.7648
-51.799
-51.8442
-51.9002
-51.9664
-52.0424
-52.1271
-52.219
-52.3161
-52.4131
-52.49
-52.4524
-51.6856
-51.6506
-51.6614
-51.6829
-51.7151
-51.7577
-51.8105
-51.873
-51.9446
-52.0241
-52.1098
-52.1982
-52.2825
-52.3516
-52.4349
-52.9959
-51.5633
-51.5734
-51.5937
-51.6241
-51.6643
-51.7141
-51.7732
-51.8411
-51.9169
-51.9988
-52.0838
-52.1624
-52.2032
-52.086
-51.2244
-51.469
-51.4786
-51.4977
-51.5263
-51.5642
-51.6114
-51.6674
-51.7321
-51.8052
-51.886
-51.9743
-52.0687
-52.1646
-52.2543
-52.3232
-51.3681
-51.3771
-51.3952
-51.4221
-51.4579
-51.5025
-51.5556
-51.6174
-51.6879
-51.7682
-51.861
-51.9738
-52.1302
-52.4372
-53.4685
-51.2611
-51.2696
-51.2865
-51.3119
-51.3457
-51.3876
-51.4378
-51.4964
-51.5639
-51.6419
-51.7343
-51.8486
-51.9912
-52.1175
-51.7005
-51.1482
-51.1562
-51.1721
-51.196
-51.2277
-51.2672
-51.3143
-51.3692
-51.4325
-51.5056
-51.5929
-51.7039
-51.8635
-52.1752
-53.2701
-51.0298
-51.0373
-51.0523
-51.0748
-51.1045
-51.1414
-51.1853
-51.2362
-51.2941
-51.3597
-51.4353
-51.5253
-51.6302
-51.6891
-51.0709
-50.9063
-50.9133
-50.9274
-50.9485
-50.9763
-51.0108
-51.0516
-51.0982
-51.1502
-51.207
-51.2683
-51.3363
-51.4287
-51.6735
-52.9698
-50.7779
-50.7845
-50.7978
-50.8175
-50.8437
-50.8759
-50.9137
-50.9565
-51.0031
-51.0512
-51.0968
-51.1305
-51.1213
-50.928
-49.6522
-50.6449
-50.6512
-50.6636
-50.6823
-50.7068
-50.737
-50.7724
-50.8121
-50.8547
-50.8972
-50.9341
-50.9542
-50.9416
-50.9345
-51.5638
-50.5076
-50.5135
-50.5253
-50.5429
-50.5661
-50.5946
-50.6281
-50.6657
-50.7063
-50.7473
-50.7832
-50.8007
-50.7582
-50.499
-49.2575
-50.3662
-50.3718
-50.383
-50.3997
-50.4217
-50.4488
-50.4808
-50.5173
-50.5576
-50.6009
-50.6455
-50.6888
-50.7251
-50.7458
-50.7431
-50.2209
-50.2263
-50.2369
-50.2527
-50.2737
-50.2997
-50.3305
-50.3662
-50.4069
-50.4535
-50.5089
-50.5818
-50.7028
-51.0089
-52.2264
-50.072
-50.0771
-50.0872
-50.1023
-50.1223
-50.1471
-50.1768
-50.2115
-50.2519
-50.3
-50.3602
-50.4413
-50.5521
-50.6391
-50.0574
-49.9195
-49.9243
-49.934
-49.9484
-49.9675
-49.9912
-50.0196
-50.0528
-50.0917
-50.1382
-50.1972
-50.2802
-50.4178
-50.7338
-51.982
-49.7636
-49.7683
-49.7775
-49.7913
-49.8095
-49.8321
-49.859
-49.8902
-49.9261
-49.9677
-50.0176
-50.0811
-50.1595
-50.1812
-49.4009
-49.6046
-49.609
-49.6179
-49.6311
-49.6485
-49.67
-49.6954
-49.7243
-49.7565
-49.7913
-49.8287
-49.8714
-49.9407
-50.1856
-51.6506
-49.4423
-49.4466
-49.4552
-49.4679
-49.4847
-49.5053
-49.5293
-49.5562
-49.5849
-49.6131
-49.6363
-49.6433
-49.5998
-49.3428
-47.8347
-49.2771
-49.2813
-49.2896
-49.3019
-49.3181
-49.338
-49.3612
-49.3869
-49.4137
-49.4385
-49.4549
-49.4502
-49.407
-49.3689
-50.0551
-49.1089
-49.113
-49.1211
-49.1331
-49.149
-49.1685
-49.1913
-49.2168
-49.2438
-49.2696
-49.2881
-49.2839
-49.2108
-48.8918
-47.4605
-48.9379
-48.9419
-48.9498
-48.9617
-48.9773
-48.9967
-49.0196
-49.0457
-49.0747
-49.1058
-49.137
-49.1654
-49.1851
-49.1871
-49.1647
-48.764
-48.7679
-48.7758
-48.7875
-48.803
-48.8223
-48.8455
-48.8726
-48.9043
-48.9416
-48.9878
-49.0527
-49.1717
-49.4994
-50.8541
-48.5874
-48.5912
-48.599
-48.6105
-48.626
-48.6453
-48.6686
-48.6964
-48.7298
-48.7712
-48.8255
-48.9026
-49.0133
-49.0984
-48.4346
-48.4079
-48.4117
-48.4194
-48.4309
-48.4462
-48.4653
-48.4886
-48.5164
-48.5499
-48.5916
-48.6471
-48.729
-48.8728
-49.2172
-50.6057
-48.2257
-48.2295
-48.2371
-48.2485
-48.2636
-48.2825
-48.3054
-48.3324
-48.3643
-48.4024
-48.45
-48.5125
-48.5928
-48.611
-47.7344
-48.0408
-48.0445
-48.0521
-48.0633
-48.0783
-48.097
-48.1192
-48.145
-48.1742
-48.2066
-48.2421
-48.2836
-48.3559
-48.6261
-50.2632
-47.8531
-47.8568
-47.8643
-47.8755
-47.8904
-47.9088
-47.9306
-47.9553
-47.982
-48.0086
-48.0298
-48.0333
-47.9814
-47.692
-46.0036
-47.6627
-47.6664
-47.6739
-47.6851
-47.6999
-47.7182
-47.7398
-47.7642
-47.79
-47.8141
-47.8293
-47.8215
-47.7717
-47.7291
-48.4997
-47.4696
-47.4733
-47.4808
-47.4919
-47.5068
-47.5252
-47.5471
-47.5721
-47.5991
-47.6255
-47.6445
-47.6386
-47.557
-47.2012
-45.5981
-47.2737
-47.2775
-47.2849
-47.2961
-47.311
-47.3297
-47.3523
-47.3787
-47.4088
-47.4419
-47.4763
-47.5084
-47.5328
-47.5393
-47.5194
-47.0752
-47.0789
-47.0863
-47.0975
-47.1125
-47.1315
-47.1548
-47.1827
-47.2163
-47.2572
-47.3093
-47.3836
-47.5208
-47.8955
-49.4289
-46.8738
-46.8775
-46.8849
-46.8961
-46.9111
-46.9302
-46.9539
-46.9829
-47.0188
-47.0646
-47.1263
-47.2149
-47.344
-47.4468
-46.7064
-46.6698
-46.6734
-46.6808
-46.6918
-46.7067
-46.7257
-46.7493
-46.7783
-46.8143
-46.8607
-46.9238
-47.0183
-47.1853
-47.5833
-49.1706
-46.4631
-46.4666
-46.4738
-46.4847
-46.4993
-46.5179
-46.5408
-46.5688
-46.6028
-46.645
-46.699
-46.7713
-46.8661
-46.8936
-45.9058
-46.2537
-46.2571
-46.2641
-46.2747
-46.2889
-46.3069
-46.3289
-46.3551
-46.3858
-46.4209
-46.4607
-46.5085
-46.5938
-46.9085
-48.7909
-46.0416
-46.045
-46.0518
-46.062
-46.0757
-46.0931
-46.114
-46.1384
-46.1656
-46.1934
-46.2161
-46.2197
-46.1619
-45.8347
-43.9068
-45.8271
-45.8303
-45.8368
-45.8467
-45.8599
-45.8765
-45.8966
-45.9198
-45.945
-45.9691
-45.984
-45.9736
-45.9172
-45.872
-46.7653
-45.6101
-45.6131
-45.6193
-45.6287
-45.6414
-45.6575
-45.677
-45.6999
-45.7254
-45.7508
-45.7687
-45.7592
-45.6648
-45.2571
-43.4145
-45.3907
-45.3936
-45.3994
-45.4083
-45.4204
-45.4358
-45.455
-45.4783
-45.5059
-45.5375
-45.5714
-45.6039
-45.6298
-45.6383
-45.6192
-45.169
-45.1717
-45.1772
-45.1854
-45.1968
-45.2115
-45.2302
-45.2537
-45.2836
-45.3222
-45.3743
-45.4531
-45.6069
-46.0382
-47.8136
-44.9453
-44.9477
-44.9527
-44.9602
-44.9705
-44.9842
-45.0019
-45.0248
-45.0553
-45.0972
-45.1578
-45.2503
-45.3912
-45.5043
-44.6441
-44.7197
-44.7218
-44.7261
-44.7327
-44.7418
-44.754
-44.7699
-44.7908
-44.8191
-44.859
-44.9181
-45.0138
-45.1948
-45.6459
-47.4801
-44.4923
-44.4941
-44.4976
-44.5031
-44.5108
-44.521
-44.5343
-44.5518
-44.5751
-44.607
-44.652
-44.718
-44.8109
-44.8266
-43.6664
-44.2635
-44.2648
-44.2676
-44.2718
-44.2777
-44.2856
-44.2957
-44.3087
-44.3252
-44.3455
-44.3702
-44.4036
-44.4805
-44.8234
-46.977
-44.0334
-44.0343
-44.0362
-44.0391
-44.0431
-44.0484
-44.0552
-44.0634
-44.0726
-44.0806
-44.0813
-44.0588
-43.9655
-43.5623
-41.3157
-43.8025
-43.8029
-43.8038
-43.8053
-43.8073
-43.81
-43.8135
-43.8175
-43.821
-43.8205
-43.8074
-43.7632
-43.6656
-43.5807
-44.5687
-43.5709
-43.5709
-43.5708
-43.5707
-43.5707
-43.5709
-43.5714
-43.5721
-43.5722
-43.5689
-43.5538
-43.5046
-43.357
-42.8535
-40.7228
-43.3391
-43.3386
-43.3374
-43.3358
-43.3337
-43.3314
-43.3291
-43.3272
-43.3259
-43.325
-43.3226
-43.3143
-43.2955
-43.2557
-43.1898
-43.1075
-43.1063
-43.1041
-43.1009
-43.0966
-43.0917
-43.0865
-43.0819
-43.0795
-43.0819
-43.0943
-43.1314
-43.2485
-43.6754
-45.6148
-42.8762
-42.8746
-42.8713
-42.8663
-42.8597
-42.8519
-42.8433
-42.8352
-42.8298
-42.8313
-42.8475
-42.8929
-42.9864
-43.0442
-42.0181
-42.6459
-42.6436
-42.6392
-42.6324
-42.6235
-42.6124
-42.5998
-42.5867
-42.5754
-42.5702
-42.5792
-42.6211
-42.7492
-43.165
-45.0853
-42.4167
-42.414
-42.4084
-42.3998
-42.3883
-42.3738
-42.3565
-42.3371
-42.3169
-42.2986
-42.2867
-42.2893
-42.312
-42.2405
-40.8869
-42.1892
-42.1859
-42.1792
-42.169
-42.1549
-42.1369
-42.1146
-42.0881
-42.0573
-42.0222
-41.9829
-41.9434
-41.9404
-42.2056
-44.356
-41.9636
-41.9598
-41.9522
-41.9404
-41.924
-41.9027
-41.8757
-41.8422
-41.8007
-41.7483
-41.6778
-41.5722
-41.3826
-40.8609
-38.4192
-41.7403
-41.7362
-41.7277
-41.7146
-41.6963
-41.6721
-41.6411
-41.6019
-41.5519
-41.4866
-41.3955
-41.2592
-41.0552
-40.8489
-41.6946
-41.5195
-41.5151
-41.5061
-41.492
-41.4723
-41.4461
-41.4122
-41.3691
-41.314
-41.2423
-41.1433
-40.9932
-40.7295
-40.1058
-37.9008
-41.3015
-41.297
-41.2876
-41.2731
-41.2525
-41.2252
-41.1897
-41.1446
-41.0879
-41.0164
-40.925
-40.8062
-40.6538
-40.4601
-40.241
-41.0863
-41.0818
-41.0724
-41.0578
-41.0372
-41.0096
-40.9738
-40.9284
-40.8721
-40.8039
-40.7243
-40.6424
-40.6068
-40.8314
-42.4335
-40.8739
-40.8695
-40.8605
-40.8464
-40.8263
-40.7994
-40.7644
-40.7199
-40.6648
-40.5989
-40.5237
-40.4464
-40.3791
-40.2455
-39.1285
-40.6642
-40.6601
-40.6518
-40.6386
-40.6199
-40.5947
-40.5615
-40.5188
-40.4652
-40.3997
-40.3231
-40.2434
-40.1973
-40.3418
-41.6669
-40.4569
-40.4533
-40.446
-40.4344
-40.4178
-40.3952
-40.365
-40.3255
-40.274
-40.2077
-40.1231
-40.017
-39.8833
-39.6175
-38.2853
-40.2518
-40.2488
-40.2428
-40.2332
-40.2195
-40.2006
-40.1751
-40.1405
-40.0933
-40.028
-39.9363
-39.8098
-39.661
-39.6331
-40.8282
-40.0483
-40.0461
-40.0416
-40.0345
-40.0244
-40.0105
-39.9913
-39.9645
-39.9254
-39.8661
-39.7721
-39.618
-39.3549
-38.7986
-36.8949
-39.8461
-39.8446
-39.8418
-39.8374
-39.8315
-39.8237
-39.8129
-39.797
-39.7717
-39.7278
-39.6479
-39.5019
-39.2524
-38.899
-38.9553
-39.6444
-39.6438
-39.6426
-39.6411
-39.6397
-39.6386
-39.6378
-39.6363
-39.6311
-39.6141
-39.5678
-39.4578
-39.2221
-38.7141
-37.3983
-39.4428
-39.4429
-39.4432
-39.4444
-39.4473
-39.4531
-39.4631
-39.4784
-39.4987
-39.5203
-39.5305
-39.5009
-39.381
-39.0893
-38.5938
-39.2409
-39.2414
-39.2428
-39.246
-39.2525
-39.2644
-39.2847
-39.3171
-39.3657
-39.4337
-39.519
-39.6066
-39.6593
-39.6053
-39.4501
-39.0383
-39.0389
-39.0408
-39.045
-39.0536
-39.0697
-39.0978
-39.1446
-39.2194
-39.3347
-39.5043
-39.7367
-40.0115
-40.191
-39.9139
-38.8348
-38.8352
-38.8367
-38.8405
-38.8492
-38.8664
-38.8979
-38.9527
-39.0451
-39.1974
-39.4442
-39.8373
-40.43
-41.093
-40.4797
-38.6307
-38.6304
-38.6305
-38.6324
-38.6385
-38.6529
-38.6817
-38.735
-38.8294
-38.9938
-39.2809
-39.7994
-40.7996
-42.8805
-47.4928
-38.4264
-38.4249
-38.4227
-38.4209
-38.4218
-38.429
-38.4483
-38.4887
-38.5654
-38.7044
-38.955
-39.4271
-40.419
-42.9092
-50.8455
-52.5606
-44.3944
-41.8017
-40.7547
-40.2461
-39.9684
-39.8079
-39.7138
-39.6591
-39.6283
-39.6119
-39.6039
-39.6006
-39.5995
-39.5993
-49.4854
-44.3909
-42.17
-41.1066
-40.5485
-40.2331
-40.0467
-39.9346
-39.8672
-39.8272
-39.804
-39.7911
-39.7843
-39.781
-39.7797
-41.4544
-42.3909
-41.7348
-41.1077
-40.6811
-40.4074
-40.2339
-40.1245
-40.0562
-40.014
-39.9886
-39.9736
-39.9651
-39.9607
-39.9589
-41.2764
-41.496
-41.2797
-40.9693
-40.7059
-40.5116
-40.3766
-40.2861
-40.2269
-40.1891
-40.1655
-40.1512
-40.1428
-40.1383
-40.1364
-40.9506
-40.9031
-40.8901
-40.7983
-40.6814
-40.5739
-40.4884
-40.426
-40.3828
-40.3541
-40.3356
-40.3242
-40.3174
-40.3137
-40.3121
-39.6534
-40.2855
-40.5555
-40.6444
-40.6491
-40.6202
-40.5842
-40.5526
-40.5285
-40.5116
-40.5005
-40.4936
-40.4895
-40.4874
-40.4864
-38.9312
-39.9186
-40.3469
-40.5489
-40.6385
-40.6708
-40.6772
-40.6742
-40.6692
-40.665
-40.6621
-40.6606
-40.6599
-40.6597
-40.6597
-39.7796
-39.9392
-40.2955
-40.5314
-40.6663
-40.7387
-40.7767
-40.7973
-40.8093
-40.8171
-40.8225
-40.8266
-40.8296
-40.8316
-40.8326
-38.2703
-39.8224
-40.3281
-40.5837