/*--------------------------------*- C++ -*----------------------------------*\
| =========                 |                                                 |
| \\      /  F ield         | OpenFOAM: The Open Source CFD Toolbox           |
|  \\    /   O peration     | Version:  5.x                                   |
|   \\  /    A nd           | Web:      www.OpenFOAM.org                      |
|    \\/     M anipulation  |                                                 |
\*---------------------------------------------------------------------------*/
FoamFile
{
    version     2.0;
    format      ascii;
    class       volScalarField;
    location    "4.1";
    object      gradTy;
}
// * * * * * * * * * * * * * * * * * * * * * * * * * * * * * * * * * * * * * //

dimensions      [0 -1 0 1 0 0 0];

internalField   nonuniform List<scalar> 
6300
(
32275.3
32225.8
32176.3
32126.9
32077.6
32028.4
31979.2
31930.2
31881.4
31832.7
31784.2
31735.8
31687.7
31639.9
31592.3
-0.0145287
-0.0436496
-0.0729486
-0.102505
-0.13233
-0.162342
-0.192349
-0.222032
-0.250952
-0.27858
-0.304355
-0.327789
-0.3486
-0.366865
-0.383142
-0.0241375
-0.0725419
-0.121295
-0.170549
-0.22035
-0.270587
-0.320954
-0.370915
-0.419709
-0.466383
-0.509889
-0.549263
-0.583867
-0.613689
-0.639616
-0.0336284
-0.101089
-0.169129
-0.238029
-0.307914
-0.378682
-0.449938
-0.520938
-0.590556
-0.657317
-0.719517
-0.775464
-0.823873
-0.864367
-0.89801
-0.0429192
-0.129067
-0.216115
-0.304538
-0.394609
-0.486304
-0.579198
-0.672362
-0.764281
-0.852839
-0.935425
-1.00923
-1.07182
-1.12194
-1.16049
-0.0518893
-0.156128
-0.261708
-0.369379
-0.479659
-0.592704
-0.708164
-0.825005
-0.941339
-1.05431
-1.16008
-1.25419
-1.3322
-1.39104
-1.43068
-0.0603984
-0.181847
-0.305209
-0.431612
-0.561942
-0.69669
-0.835748
-0.978151
-1.12176
-1.26296
-1.39641
-1.51522
-1.61173
-1.67932
-1.7154
-0.0682579
-0.205657
-0.345672
-0.489923
-0.639815
-0.796371
-0.959993
-1.1301
-1.30461
-1.47935
-1.64736
-1.79854
-1.92015
-1.99907
-2.02677
-0.0752348
-0.226853
-0.3819
-0.542596
-0.711025
-0.888989
-1.07776
-1.27763
-1.48722
-1.70245
-1.91512
-2.1114
-2.27118
-2.36995
-2.38632
-0.0810631
-0.244619
-0.412477
-0.587534
-0.772696
-0.9708
-1.18442
-1.41542
-1.66418
-1.92809
-2.1992
-2.46069
-2.68309
-2.8231
-2.8324
-0.0854607
-0.258083
-0.435854
-0.622364
-0.82142
-1.03709
-1.27368
-1.53544
-1.82594
-2.14649
-2.49282
-2.84897
-3.17726
-3.40681
-3.43443
-0.0881569
-0.266394
-0.450489
-0.644643
-0.853521
-1.08247
-1.33775
-1.62669
-1.95763
-2.33903
-2.77652
-3.26499
-3.77003
-4.19233
-4.3241
-0.0889289
-0.268846
-0.455062
-0.652194
-0.865545
-1.10151
-1.36814
-1.67591
-2.0388
-2.47538
-3.00915
-3.66431
-4.44545
-5.26838
-5.77662
-0.0876405
-0.264997
-0.448717
-0.643523
-0.854949
-1.08987
-1.35736
-1.66998
-2.04621
-2.51446
-3.12027
-3.93758
-5.07907
-6.65922
-8.43355
-0.084276
-0.254783
-0.431283
-0.618229
-0.820847
-1.04567
-1.30141
-1.60041
-1.96152
-2.41588
-3.01981
-3.88663
-5.27418
-7.85607
-13.6746
31548.8
31509.5
31470.4
31431.5
31392.8
31354.3
31316
31277.9
31240.1
31202.6
31165.3
31128.3
31091.7
31055.4
31019.4
30983.7
30948.5
30913.5
30879
30844.8
30811
30777.6
30744.5
30711.8
30679.4
30647.4
30615.7
30584.3
30553.1
30522.3
30491.7
30461.4
30431.3
30401.4
30371.7
30342.3
30313
30283.9
30255
30226.2
30197.6
30169.2
30140.9
30112.8
30084.8
30057
30029.3
30001.8
29974.4
29947.2
29920
29893
29866.2
29839.4
29812.7
29786.2
29759.7
29733.2
29706.8
29680.5
29654.2
29627.9
29601.6
29575.3
29549
29522.7
29496.4
29470
29443.6
29417.1
29390.6
29364
29337.4
29310.6
29283.8
29256.8
29229.8
29202.7
29175.4
29148
29120.4
29092.7
29064.9
29036.9
29008.7
28980.3
28951.8
28923.1
28894.1
28865
-0.397236
-0.410427
-0.425024
-0.442041
-0.462325
-0.486398
-0.514345
-0.545764
-0.579798
-0.615252
-0.650751
-0.684921
-0.716543
-0.744649
-0.768549
-0.787797
-0.802121
-0.81135
-0.815376
-0.814142
-0.807681
-0.796149
-0.779865
-0.75931
-0.735105
-0.707963
-0.678644
-0.647918
-0.616542
-0.585246
-0.55472
-0.525581
-0.498341
-0.473373
-0.450895
-0.430978
-0.413586
-0.398621
-0.385964
-0.375488
-0.367039
-0.360393
-0.355207
-0.350986
-0.347088
-0.342774
-0.337289
-0.329956
-0.320261
-0.307909
-0.292837
-0.275189
-0.255264
-0.233469
-0.210262
-0.186131
-0.161559
-0.137008
-0.11288
-0.0894869
-0.0670173
-0.0455244
-0.0249419
-0.00512363
0.0141035
0.0328916
0.0513447
0.0695204
0.0874541
0.105192
0.122814
0.140433
0.158173
0.17613
0.194338
0.212755
0.231275
0.249755
0.268053
0.286055
0.303665
0.320782
0.337248
0.352809
0.36709
0.379604
0.389799
0.397113
0.40105
0.401231
-0.66156
-0.681939
-0.704675
-0.731714
-0.764709
-0.804713
-0.851943
-0.905677
-0.964316
-1.0256
-1.08697
-1.14588
-1.20014
-1.2481
-1.28866
-1.32119
-1.34535
-1.36093
-1.36773
-1.36564
-1.35462
-1.33491
-1.30701
-1.27178
-1.23031
-1.18387
-1.13379
-1.08138
-1.02793
-0.974677
-0.922823
-0.873451
-0.827466
-0.785515
-0.747942
-0.714811
-0.685987
-0.661245
-0.640364
-0.62316
-0.609447
-0.598929
-0.591084
-0.585076
-0.579762
-0.573781
-0.565721
-0.554319
-0.538635
-0.518155
-0.492811
-0.46292
-0.42907
-0.392009
-0.352557
-0.311563
-0.269874
-0.228308
-0.187596
-0.148303
-0.110763
-0.0750393
-0.0409595
-0.00819619
0.0236148
0.0547696
0.0854398
0.115683
0.145507
0.174953
0.204154
0.233335
0.262761
0.292646
0.32307
0.35395
0.385054
0.41609
0.446787
0.476955
0.506487
0.535285
0.563158
0.589715
0.614314
0.636079
0.653981
0.666978
0.674148
0.674813
-0.925164
-0.949951
-0.978024
-1.0127
-1.05688
-1.1125
-1.18005
-1.25841
-1.34489
-1.43572
-1.5266
-1.61339
-1.69268
-1.76207
-1.82021
-1.86652
-1.90082
-1.92299
-1.93277
-1.92984
-1.91396
-1.88531
-1.84458
-1.79308
-1.73252
-1.66487
-1.59213
-1.51619
-1.43887
-1.36195
-1.2872
-1.21629
-1.15063
-1.0912
-1.03844
-0.992288
-0.952357
-0.918157
-0.889314
-0.865652
-0.847101
-0.833467
-0.824164
-0.818018
-0.81325
-0.807635
-0.798821
-0.784708
-0.763775
-0.735264
-0.699196
-0.656216
-0.607366
-0.553859
-0.496943
-0.437866
-0.377884
-0.318255
-0.260144
-0.204475
-0.151771
-0.102069
-0.0549645
-0.00978255
0.0341842
0.0774569
0.12026
0.162557
0.204209
0.245171
0.285625
0.325987
0.366789
0.408482
0.451246
0.494914
0.539026
0.583005
0.626369
0.668859
0.710449
0.751202
0.791038
0.829513
0.865693
0.898183
0.925296
0.945305
0.956691
0.958351
-1.18871
-1.21333
-1.24197
-1.2801
-1.33271
-1.40323
-1.49275
-1.59957
-1.71937
-1.84594
-1.97229
-2.0919
-2.19966
-2.29245
-2.36901
-2.42936
-2.47399
-2.50313
-2.51639
-2.51293
-2.49198
-2.45337
-2.39798
-2.32772
-2.24525
-2.15355
-2.05541
-1.95333
-1.84958
-1.74646
-1.64642
-1.55195
-1.46521
-1.38767
-1.31982
-1.26122
-1.21089
-1.16778
-1.13124
-1.10123
-1.07812
-1.06222
-1.05316
-1.04944
-1.04843
-1.04657
-1.04003
-1.0254
-1.00031
-0.963747
-0.916024
-0.858459
-0.792864
-0.721113
-0.644937
-0.565964
-0.485881
-0.406504
-0.329662
-0.256862
-0.188938
-0.125834
-0.066672
-0.0100843
0.0452935
0.100368
0.155364
0.209922
0.263477
0.315703
0.366816
0.417602
0.469143
0.522392
0.577749
0.634879
0.692838
0.75047
0.806881
0.861742
0.915313
0.968146
1.0206
1.07235
1.12213
1.16778
1.2066
1.23583
1.25306
1.25659
-1.45368
-1.47084
-1.49216
-1.5266
-1.58266
-1.66653
-1.78047
-1.92198
-2.08403
-2.25639
-2.42763
-2.58739
-2.72815
-2.84616
-2.94108
-3.01476
-3.06942
-3.1061
-3.12403
-3.12118
-3.09536
-3.04557
-2.97275
-2.87987
-2.77126
-2.65145
-2.52434
-2.39283
-2.25935
-2.1265
-1.9976
-1.87643
-1.76653
-1.67018
-1.58784
-1.51823
-1.45902
-1.40793
-1.36375
-1.32685
-1.29876
-1.28114
-1.27444
-1.27699
-1.28484
-1.29226
-1.2929
-1.28118
-1.2534
-1.20832
-1.14705
-1.0723
-0.987259
-0.894773
-0.796992
-0.695701
-0.592897
-0.491146
-0.393399
-0.302272
-0.219207
-0.143967
-0.0747157
-0.00868783
0.0567951
0.123349
0.191053
0.258689
0.324617
0.387795
0.448441
0.508089
0.569003
0.633229
0.701665
0.773618
0.847087
0.919665
0.989595
1.05646
1.12121
1.18561
1.25114
1.31799
1.38449
1.44721
1.50172
1.54359
1.56911
1.57577
-1.724
-1.72231
-1.72339
-1.74188
-1.79247
-1.88644
-2.02839
-2.21469
-2.43375
-2.66836
-2.8994
-3.11011
-3.2893
-3.43298
-3.5436
-3.62744
-3.69064
-3.73592
-3.76149
-3.76236
-3.73315
-3.67079
-3.57626
-3.45456
-3.31323
-3.15975
-2.99944
-2.83505
-2.66805
-2.50073
-2.33748
-2.18455
-2.04819
-1.93235
-1.83739
-1.76013
-1.69532
-1.63796
-1.58563
-1.53961
-1.50418
-1.4842
-1.48223
-1.49677
-1.52172
-1.54754
-1.56342
-1.55994
-1.53124
-1.47605
-1.39735
-1.30078
-1.19223
-1.07591
-0.953957
-0.82747
-0.69825
-0.569879
-0.447456
-0.335927
-0.238064
-0.153333
-0.077975
-0.0063652
0.0668942
0.144815
0.226975
0.310052
0.389855
0.463666
0.53164
0.596887
0.664224
0.738134
0.820641
0.910297
1.00274
1.09279
1.17685
1.25432
1.32775
1.40156
1.47988
1.56425
1.6524
1.73855
1.81514
1.87497
1.91243
1.92394
-2.00788
-1.9697
-1.92937
-1.91075
-1.93961
-2.037
-2.21219
-2.45997
-2.76078
-3.08518
-3.40017
-3.67789
-3.90127
-4.06707
-4.18435
-4.26945
-4.33728
-4.39372
-4.43412
-4.44646
-4.41823
-4.34189
-4.21843
-4.05705
-3.87222
-3.67741
-3.47991
-3.28049
-3.0767
-2.86858
-2.66196
-2.46826
-2.29973
-2.16388
-2.06088
-1.9835
-1.9203
-1.86013
-1.7978
-1.7365
-1.68674
-1.66065
-1.66562
-1.7009
-1.75668
-1.81649
-1.86114
-1.87435
-1.84654
-1.77695
-1.67271
-1.54584
-1.40771
-1.26447
-1.11676
-0.96249
-0.801698
-0.63936
-0.485148
-0.349226
-0.237335
-0.148532
-0.0751695
-0.00575652
0.0709364
0.160823
0.262217
0.366762
0.46434
0.548559
0.619368
0.683275
0.750568
0.831232
0.929886
1.04351
1.16238
1.27508
1.37409
1.45847
1.53423
1.6115
1.70035
1.80549
1.92362
2.04403
2.15306
2.23892
2.29346
2.31213
-2.32184
-2.21997
-2.10385
-2.01091
-1.98772
-2.07507
-2.29099
-2.62837
-3.05332
-3.51497
-3.95402
-4.32332
-4.59548
-4.77037
-4.87071
-4.93559
-4.99956
-5.07382
-5.14634
-5.18811
-5.1717
-5.07997
-4.91425
-4.69234
-4.44457
-4.19792
-3.96209
-3.73117
-3.49049
-3.23315
-2.9667
-2.71455
-2.50302
-2.34689
-2.24622
-2.1852
-2.13962
-2.08414
-2.00716
-1.91545
-1.83383
-1.79098
-1.80397
-1.87408
-1.9844
-2.10583
-2.20268
-2.24637
-2.22054
-2.12624
-1.97915
-1.80561
-1.62902
-1.45794
-1.28751
-1.10538
-0.905861
-0.695633
-0.494996
-0.32642
-0.201868
-0.120014
-0.0652007
-0.0141662
0.0574327
0.161696
0.294344
0.434905
0.559442
0.654119
0.718372
0.766107
0.818956
0.899697
1.01883
1.17037
1.33207
1.47824
1.5935
1.67614
1.73961
1.80578
1.89837
2.02897
2.19248
2.36679
2.52516
2.64874
2.72688
2.75573
-2.69783
-2.49048
-2.24468
-2.01033
-1.8763
-1.92759
-2.19443
-2.67013
-3.29243
-3.97668
-4.60767
-5.10799
-5.42907
-5.58029
-5.60738
-5.60225
-5.64617
-5.75552
-5.90194
-6.0126
-6.03268
-5.92361
-5.68995
-5.36382
-5.0142
-4.70171
-4.43604
-4.19469
-3.92702
-3.6096
-3.24956
-2.90106
-2.62521
-2.44865
-2.37307
-2.36325
-2.37175
-2.33763
-2.23628
-2.07835
-1.92357
-1.83934
-1.85848
-1.98777
-2.1945
-2.42892
-2.61913
-2.71683
-2.69148
-2.54987
-2.32196
-2.06805
-1.84068
-1.64873
-1.47337
-1.27158
-1.0237
-0.736354
-0.456944
-0.238488
-0.103192
-0.0508419
-0.0480814
-0.0504886
-0.00141683
0.123375
0.316739
0.527769
0.699166
0.805084
0.842731
0.843126
0.848712
0.914396
1.06258
1.28406
1.52556
1.7273
1.8612
1.92274
1.94235
1.96327
2.04287
2.20622
2.44693
2.71356
2.94838
3.12492
3.23216
3.27597
-3.19602
-2.81622
-2.36892
-1.8653
-1.49811
-1.46986
-1.79718
-2.50091
-3.44242
-4.51521
-5.44962
-6.1509
-6.50746
-6.56919
-6.39067
-6.19852
-6.19883
-6.38413
-6.70927
-6.96783
-7.07994
-6.94703
-6.59915
-6.06953
-5.53076
-5.13848
-4.87537
-4.69653
-4.4356
-4.04788
-3.51627
-2.98343
-2.60491
-2.40552
-2.40573
-2.51545
-2.66577
-2.68852
-2.54747
-2.23732
-1.91236
-1.73948
-1.75503
-1.99059
-2.3654
-2.81635
-3.16951
-3.36517
-3.33055
-3.09851
-2.70295
-2.29302
-2.0021
-1.81637
-1.69804
-1.5049
-1.19912
-0.766386
-0.331859
-0.0315442
0.114192
0.089006
-0.024245
-0.161657
-0.170004
-0.0143786
0.313026
0.677049
0.93254
1.05372
1.0201
0.912059
0.79133
0.809735
1.00024
1.36842
1.77582
2.07359
2.23263
2.22924
2.14277
2.03584
2.06639
2.27169
2.66373
3.1058
3.45516
3.70054
3.82839
3.90091
-3.92905
-3.23921
-2.57447
-1.52418
-0.632434
-0.500886
-0.858849
-1.9903
-3.40445
-5.25419
-6.62858
-7.69157
-8.01191
-7.90566
-7.19529
-6.51946
-6.48701
-6.81335
-7.61455
-8.13609
-8.48226
-8.28234
-7.77251
-6.79097
-5.83902
-5.39199
-5.19619
-5.31944
-5.12973
-4.69636
-3.78787
-2.8468
-2.32995
-2.07834
-2.28412
-2.61269
-3.1471
-3.27896
-3.10591
-2.42144
-1.68609
-1.37229
-1.33884
-1.79701
-2.43084
-3.34883
-3.95098
-4.34947
-4.25832
-3.88709
-3.10913
-2.35117
-2.0166
-1.89152
-2.03503
-1.90502
-1.56194
-0.803606
-0.0181059
0.393408
0.573132
0.351115
0.0298579
-0.463171
-0.579165
-0.403908
0.252233
0.978316
1.35509
1.52113
1.30052
0.995232
0.529636
0.453387
0.678276
1.39261
2.18039
2.6162
2.83462
2.6521
2.36948
1.90736
1.83527
2.06535
2.80571
3.62888
4.10915
4.44298
4.5019
4.67132
-5.13865
-3.62633
-3.33538
-0.954576
1.3283
1.17341
1.19371
-1.07225
-2.73888
-6.67732
-8.25559
-10.3012
-10.1302
-10.1115
-7.94966
-5.91334
-6.25795
-6.55824
-8.92201
-9.55636
-10.6704
-10.0633
-9.62445
-7.46907
-5.41945
-5.28298
-5.05682
-6.39231
-6.17397
-6.02821
-4.10555
-2.09839
-1.67215
-1.09165
-1.98483
-2.41267
-4.20721
-4.30757
-4.39986
-2.67786
-0.851776
-0.600382
-0.213725
-1.34948
-2.08611
-4.33512
-5.02471
-6.03782
-5.58833
-5.26028
-3.48543
-1.79853
-1.72832
-1.57881
-2.76477
-2.61083
-2.52163
-0.878829
0.835289
1.15325
1.6117
0.757255
0.33245
-1.30648
-1.40658
-1.4848
0.0918064
1.78363
2.08217
2.54636
1.704
1.31035
-0.29162
-0.335511
-0.347459
1.31203
3.09271
3.47279
4.0149
3.22005
2.85565
1.21816
1.16995
1.12507
2.82923
4.64645
4.97471
5.58202
5.01711
5.69226
-7.69117
-2.25451
-7.10555
-0.243826
6.79967
2.59575
6.53891
-1.01684
1.1985
-11.4987
-9.20915
-16.1026
-12.0286
-15.4032
-8.52271
-1.87815
-6.09218
-3.33113
-12.7193
-10.2853
-15.3362
-11.6014
-13.9476
-7.9942
-2.24421
-5.30241
-2.6679
-9.70198
-7.1129
-9.91807
-4.54407
0.927369
-1.23563
2.01806
-2.35476
-0.243719
-7.7061
-5.34688
-8.30551
-3.0832
2.25105
-0.0222736
3.10467
-1.4757
0.437449
-7.56598
-5.63156
-9.83131
-6.74245
-8.7158
-3.73401
1.08323
-1.55317
0.658095
-5.4229
-3.22231
-5.71742
-1.05565
3.70026
1.71187
4.54192
0.54583
2.38448
-4.36454
-2.26443
-4.9475
-0.233452
4.59637
2.57177
5.45409
1.4624
3.36649
-3.3554
-1.16936
-3.77897
1.05793
6.02288
4.09702
7.12133
3.16912
5.17598
-1.7586
0.500731
-2.33293
2.6908
7.80891
5.43925
8.40978
3.74744
7.5379
-17.0999
13.9319
-27.7418
0.205262
28.4673
-7.71381
28.4424
-15.032
26.6098
-37.9014
3.06056
-37.6974
-3.20152
-35.4627
-8.75649
17.793
-15.9711
17.3904
-33.5412
-0.236539
-32.6543
-4.38379
-30.2227
-8.22725
13.614
-13.5202
13.643
-26.8699
-0.284998
-25.5869
-5.12386
14.9457
-8.60017
16.1089
-12.0626
15.7099
-25.3493
1.27032
-23.993
-3.651
16.3075
-7.22189
17.5203
-10.954
17.2395
-25.1088
2.59335
-24.1219
-0.608493
-22.1883
-3.74721
14.6967
-8.36025
14.8343
-20.0081
2.92642
-19.2207
-1.36961
16.2754
-4.66965
17.3001
-8.06921
16.8011
-20.1669
3.76394
-19.0636
-0.72693
17.2779
-4.00604
18.2589
-7.27054
17.8426
-19.2479
4.90114
-17.9347
0.618178
18.8746
-2.40817
20.2727
-5.46399
20.3708
-17.9756
7.16439
-17.1064
2.41555
21.7529
-1.78687
22.228
-9.6951
14.592
28832.8
28797.4
28761.7
28725.7
28689.5
28653.1
28616.5
28579.7
28542.7
28505.6
28468.4
28431.1
28393.7
28356.2
28318.7
0.397058
0.386783
0.37111
0.350668
0.326279
0.298841
0.269222
0.23819
0.206373
0.174238
0.142098
0.110135
0.0784194
0.0469396
0.0156261
0.667958
0.650504
0.623714
0.588756
0.54713
0.500444
0.450231
0.397823
0.34428
0.290377
0.236617
0.183273
0.130436
0.0780527
0.0259805
0.948833
0.923568
0.884488
0.833512
0.773037
0.70557
0.633436
0.558592
0.482553
0.40638
0.330726
0.255913
0.182001
0.108858
0.0362262
1.24448
1.21034
1.15706
1.08768
1.00585
0.91529
0.819289
0.720513
0.620929
0.52184
0.423983
0.327648
0.232795
0.139153
0.0462941
1.56101
1.51624
1.44573
1.35425
1.24736
1.1304
1.00787
0.883207
0.758784
0.636047
0.515699
0.397888
0.282375
0.168663
0.0560914
1.90628
1.84792
1.75537
1.63624
1.49892
1.35102
1.19852
1.04561
0.894919
0.747843
0.604859
0.465815
0.330145
0.19703
0.0654982
2.29084
2.21399
2.09175
1.93652
1.7611
1.57622
1.38951
1.20572
1.02739
0.855513
0.690059
0.530353
0.375351
0.223807
0.0743673
2.72952
2.62586
2.46148
2.25729
2.033
1.80337
1.57757
1.3603
1.15333
0.956713
0.769477
0.590166
0.417088
0.248472
0.082528
3.24386
3.09899
2.87148
2.59864
2.31074
2.02707
1.75724
1.50456
1.26889
1.04847
0.84093
0.643715
0.454345
0.270454
0.0897958
3.86777
3.65455
3.32673
2.95506
2.58465
2.23738
1.92007
1.63193
1.3692
1.12733
0.902012
0.689389
0.4861
0.289189
0.0959907
4.66702
4.32335
3.82468
3.30908
2.83515
2.41792
2.05394
1.73404
1.44866
1.18962
0.950369
0.7257
0.511457
0.304201
0.100963
5.80588
5.14771
4.3401
3.62059
3.02841
2.54516
2.14386
1.80172
1.50182
1.23214
0.984118
0.751564
0.529811
0.315186
0.104622
7.72765
6.12152
4.76876
3.80492
3.1126
2.59046
2.17473
1.82721
1.52477
1.25297
1.00238
0.766605
0.54102
0.322101
0.10696
11.4617
6.84105
4.8082
3.71758
3.02658
2.52947
2.1375
1.80768
1.51711
1.25256
1.00581
0.771429
0.545548
0.325231
0.10807
-0.0795422
-0.240362
-0.406487
-0.581813
-0.770835
-0.979045
-1.21355
-1.48409
-1.80504
-2.19928
-2.70704
-3.40805
-4.48499
-6.42901
-10.7805
-0.0739055
-0.223173
-0.37687
-0.538169
-0.710591
-0.898193
-1.10579
-1.33925
-1.6057
-1.91344
-2.26986
-2.67062
-3.05044
-3.05733
-0.979409
-0.0672578
-0.202906
-0.341972
-0.4868
-0.639805
-0.803445
-0.980065
-1.17145
-1.37762
-1.59376
-1.80191
-1.94784
-1.87473
-1.13316
1.52128
-0.0598224
-0.180263
-0.303071
-0.42975
-0.561631
-0.699676
-0.844062
-0.993316
-1.14252
-1.27956
-1.37724
-1.37736
-1.16292
-0.537602
0.595512
-0.051833
-0.155972
-0.261479
-0.369084
-0.479172
-0.591496
-0.704656
-0.815166
-0.915788
-0.992614
-1.02036
-0.956116
-0.736052
-0.29481
0.343346
-0.0435147
-0.130729
-0.218428
-0.306689
-0.395157
-0.482733
-0.567078
-0.643845
-0.705489
-0.739629
-0.727354
-0.643264
-0.462604
-0.188773
0.0708166
-0.0350672
-0.105146
-0.174982
-0.244145
-0.311757
-0.376206
-0.434754
-0.483002
-0.514225
-0.518765
-0.484142
-0.39754
-0.253775
-0.0728141
0.0769353
-0.0266569
-0.0797274
-0.131995
-0.182668
-0.230541
-0.273765
-0.309573
-0.333967
-0.341448
-0.325011
-0.276945
-0.191496
-0.0707212
0.064876
0.157091
-0.0184132
-0.0548603
-0.0901047
-0.123122
-0.152536
-0.176456
-0.192303
-0.196663
-0.185255
-0.153162
-0.0956416
-0.00993145
0.102097
0.232749
0.382659
-0.0104302
-0.030821
-0.0497499
-0.0660615
-0.0783266
-0.0847316
-0.0829872
-0.0702916
-0.0434065
0.00107208
0.0661378
0.153413
0.262037
0.387311
0.513116
-0.00277036
-0.00778869
-0.0111995
-0.0117944
-0.00816519
0.00136007
0.0187512
0.0462492
0.086245
0.141044
0.212542
0.301991
0.41047
0.541572
0.712911
0.00453006
0.0141362
0.0254095
0.0395582
0.0579249
0.0820172
0.113501
0.154139
0.205641
0.269449
0.346527
0.43742
0.543239
0.667964
0.815813
0.0114547
0.0349129
0.0600371
0.0880016
0.120064
0.157571
0.201928
0.254515
0.316518
0.388672
0.470967
0.562555
0.662922
0.778373
0.948428
0.0180016
0.0545423
0.0927081
0.133621
0.178449
0.228398
0.284674
0.348386
0.420374
0.500883
0.589003
0.681671
0.772175
0.850936
0.93594
0.0241784
0.0730531
0.123488
0.176545
0.233306
0.294866
0.362291
0.436547
0.518345
0.60784
0.703931
0.802368
0.889625
0.919239
0.701942
0.0299991
0.0904905
0.152464
0.216919
0.284861
0.357296
0.435204
0.519508
0.611005
0.71025
0.81728
0.930909
1.04715
1.15908
1.292
0.0354808
0.106909
0.179735
0.254897
0.333329
0.415961
0.503716
0.597514
0.698321
0.807288
0.926098
1.05773
1.20772
1.38445
1.58049
0.0406423
0.122365
0.205403
0.29063
0.378912
0.471108
0.568074
0.670697
0.78001
0.897525
1.02607
1.17189
1.34978
1.59651
2.01195
0.0455029
0.13692
0.22957
0.324267
0.421811
0.522984
0.62855
0.739277
0.856045
0.980142
1.1141
1.26386
1.44413
1.69149
2.094
0.0500814
0.150631
0.252335
0.355954
0.462225
0.571852
0.685487
0.80371
0.927034
1.05595
1.19123
1.33472
1.49197
1.67884
1.9316
0.0543957
0.16355
0.273791
0.385827
0.500345
0.61798
0.739284
0.86465
0.99418
1.1274
1.26271
1.39614
1.51931
1.62054
1.73605
0.0584616
0.175728
0.29402
0.414008
0.536337
0.661605
0.790309
0.922748
1.05881
1.19745
1.33556
1.4648
1.56194
1.55243
1.14047
0.0622936
0.187206
0.313092
0.440592
0.570329
0.702891
0.838791
0.978383
1.12168
1.26792
1.41466
1.55587
1.67868
1.76391
1.84285
0.0659039
0.198021
0.331066
0.465655
0.602401
0.741908
0.884761
1.0315
1.18255
1.33807
1.49766
1.65983
1.82158
1.97988
2.13605
0.0693038
0.208205
0.34799
0.489252
0.632596
0.778651
0.928089
1.08168
1.24036
1.40545
1.57895
1.76421
1.96696
2.19744
2.48095
0.0725041
0.21779
0.363911
0.511436
0.660953
0.813095
0.968592
1.12837
1.29378
1.46703
1.65214
1.85655
2.09318
2.37831
2.69512
0.0755162
0.226808
0.378882
0.532271
0.68753
0.845263
1.00618
1.17121
1.34179
1.52043
1.71201
1.92664
2.18583
2.53731
3.09914
0.0783527
0.235298
0.392965
0.551843
0.712434
0.875274
1.04096
1.21026
1.38427
1.5649
1.75597
1.96591
2.21449
2.55038
3.10139
0.0810274
0.243301
0.406233
0.57026
0.735822
0.903358
1.07331
1.2461
1.42221
1.60217
1.78691
1.97849
2.1826
2.41422
2.69747
0.0835549
0.250863
0.418764
0.587648
0.757888
0.929825
1.10373
1.2797
1.45751
1.63619
1.81317
1.98252
2.13168
2.24235
2.35811
0.0859498
0.258028
0.43064
0.604131
0.778822
0.954984
1.13277
1.31208
1.49227
1.67144
1.84484
2.0007
2.10756
2.0671
1.49567
0.0882257
0.264838
0.441932
0.619818
0.798785
0.979073
1.16082
1.34392
1.52779
1.71074
1.88878
2.05307
2.1858
2.2607
2.3138
0.0903947
0.27133
0.452701
0.634793
0.81788
1.00221
1.18798
1.37529
1.564
1.75351
1.94234
2.1275
2.30428
2.46959
2.63439
0.0924678
0.277535
0.462996
0.649116
0.836161
1.02441
1.21415
1.40575
1.5997
1.7968
1.99854
2.20791
2.43084
2.67897
2.98029
0.0944548
0.283482
0.472861
0.662835
0.853659
1.04562
1.2391
1.43465
1.63327
1.83691
2.04952
2.27904
2.54
2.85155
3.1978
0.0963659
0.2892
0.482342
0.676004
0.870416
1.06585
1.26267
1.46148
1.66342
1.87085
2.08884
2.32848
2.61413
3.00018
3.62022
0.0982114
0.29472
0.491489
0.688693
0.886517
1.08517
1.28492
1.48621
1.68983
1.89752
2.11321
2.34613
2.61863
2.98651
3.59876
0.100002
0.300077
0.500362
0.700991
0.902094
1.10379
1.30618
1.50937
1.71347
1.9187
2.1257
2.33646
2.557
2.8033
3.09823
0.10175
0.305305
0.509023
0.713
0.917312
1.12199
1.32696
1.53197
1.73639
1.93872
2.13568
2.32017
2.47755
2.58649
2.69561
0.103465
0.310436
0.517532
0.724819
0.932331
1.14004
1.34777
1.55506
1.76081
1.96251
2.15443
2.32286
2.43181
2.36971
1.70268
0.105155
0.315498
0.525937
0.736521
0.947268
1.15813
1.36895
1.57927
1.78809
1.99316
2.18958
2.36701
2.50492
2.57314
2.61145
0.106828
0.320511
0.534271
0.748151
0.962174
1.17633
1.39054
1.6046
1.81804
2.02986
2.23801
2.43877
2.62649
2.79751
2.96509
0.108488
0.325486
0.54255
0.759721
0.977041
1.19455
1.41231
1.63044
1.84918
2.06914
2.29166
2.51976
2.75975
3.0244
3.34454
0.110138
0.330431
0.550782
0.77123
0.991828
1.21266
1.4339
1.65591
1.87954
2.1067
2.34152
2.59263
2.87601
3.21292
3.58532
0.11178
0.335355
0.558975
0.782676
1.00651
1.23055
1.45501
1.68032
1.90752
2.13899
2.38016
2.64322
2.9552
3.37694
4.0581
0.113417
0.340263
0.567141
0.794072
1.02108
1.24822
1.4756
1.70349
1.93259
2.16461
2.4037
2.65999
2.95829
3.36099
4.03479
0.115053
0.345165
0.575297
0.805454
1.03563
1.26579
1.4959
1.72589
1.9557
2.18537
2.41539
2.64775
2.88898
3.15693
3.47787
0.116689
0.350071
0.583466
0.816864
1.05023
1.28346
1.51636
1.74849
1.97896
2.20595
2.42555
2.62953
2.80118
2.91624
3.02889
0.118326
0.354985
0.591659
0.828338
1.06497
1.30143
1.53741
1.77229
2.00471
2.23171
2.44665
2.63391
2.75275
2.67738
1.91961
0.119964
0.359905
0.599878
0.839884
1.07989
1.31978
1.5593
1.79788
2.03428
2.26589
2.48707
2.68598
2.83925
2.91255
2.9503
0.121599
0.36482
0.608101
0.851472
1.09494
1.33845
1.58191
1.82503
2.06724
2.30736
2.54303
2.7699
2.98134
3.17256
3.35601
0.123225
0.369708
0.616291
0.863034
1.11
1.35723
1.60482
1.85288
2.10171
2.35197
2.60518
2.8647
3.13759
3.4381
3.80143
0.124832
0.374544
0.624395
0.874484
1.12492
1.37583
1.62746
1.88027
2.13525
2.39458
2.66302
2.95035
3.27475
3.66016
4.08442
0.126412
0.379297
0.632363
0.885735
1.13955
1.39399
1.64936
1.90622
2.16582
2.43094
2.70781
3.0104
3.36965
3.85541
4.64032
0.127956
0.383941
0.640146
0.896716
1.1538
1.41158
1.67028
1.93033
2.19262
2.45918
2.73485
3.03124
3.3768
3.84308
4.62071
0.129454
0.388448
0.647701
0.907376
1.16762
1.42857
1.69032
1.95294
2.2165
2.48117
2.74759
3.0181
3.3002
3.6147
3.99329
0.130896
0.39279
0.654989
0.917677
1.18101
1.44507
1.70982
1.97497
2.23967
2.50199
2.75758
2.99705
3.20117
3.34195
3.48156
0.132272
0.396937
0.661963
0.927569
1.19393
1.46115
1.72912
1.99736
2.26456
2.52753
2.77887
3.00071
3.14618
3.07017
2.20882
0.133567
0.400848
0.668559
0.936971
1.20632
1.47676
1.74828
2.02054
2.29242
2.56121
2.82071
3.05757
3.24505
3.34387
3.4058
0.134767
0.404474
0.674693
0.94576
1.21799
1.49167
1.767
2.04403
2.32248
2.60137
2.87836
3.14886
3.40557
3.64333
3.87631
0.135853
0.407759
0.680264
0.953775
1.2287
1.50549
1.7846
2.06661
2.35229
2.64288
2.94061
3.24986
3.57933
3.94624
4.39259
0.136805
0.410641
0.685161
0.960839
1.23818
1.51774
1.80025
2.08669
2.37874
2.67947
2.99491
3.33695
3.72718
4.19411
4.71421
0.137603
0.413062
0.689279
0.966784
1.24615
1.52801
1.81321
2.10294
2.39922
2.70589
3.03081
3.3907
3.82186
4.40519
5.33908
0.138232
0.414968
0.692527
0.971474
1.25242
1.53602
1.82309
2.1147
2.41254
2.71969
3.04249
3.3951
3.81095
4.37298
5.30221
0.138676
0.416318
0.694832
0.974813
1.25688
1.54167
1.82987
2.12219
2.41945
2.72268
3.03355
3.35572
3.6986
4.08592
4.54914
0.138924
0.417075
0.696139
0.976736
1.25949
1.54501
1.83383
2.1263
2.42225
2.7204
3.01685
3.30208
3.55546
3.74626
3.94549
0.138965
0.41721
0.696405
0.977193
1.26022
1.54609
1.83531
2.12803
2.42358
2.71933
3.00801
3.2707
3.45583
3.40087
2.46953
0.138791
0.416697
0.695584
0.976125
1.25901
1.54491
1.83442
2.12785
2.42481
2.72322
3.01728
3.29332
3.52297
3.66419
3.77676
0.138394
0.415514
0.693636
0.973462
1.25574
1.54126
1.83085
2.12527
2.42507
2.73016
3.03913
3.34827
3.65156
3.94752
4.26404
0.137773
0.413647
0.690523
0.969124
1.25025
1.53483
1.82396
2.119
2.42169
2.73443
3.06092
3.40739
3.78532
4.21666
4.74976
0.136926
0.411094
0.686232
0.963058
1.2424
1.52528
1.81303
2.10747
2.41136
2.7292
3.06887
3.44476
3.88206
4.41525
5.03335
0.135862
0.407878
0.680788
0.955268
1.23213
1.5124
1.79748
2.08941
2.39138
2.70883
3.05173
3.4396
3.91226
4.55498
5.56773
0.134601
0.40405
0.674269
0.94585
1.21952
1.49621
1.77723
2.06443
2.3607
2.67082
3.00343
3.37563
3.82444
4.43784
5.45241
0.133169
0.399698
0.666821
0.935006
1.20483
1.47706
1.75271
2.03319
2.32043
2.61722
2.92768
3.25858
3.62238
4.0422
4.5285
0.131607
0.394942
0.658652
0.923043
1.18851
1.45556
1.72488
1.99728
2.27357
2.55415
2.83779
3.11877
3.38145
3.60049
3.84804
0.129966
0.389934
0.650024
0.910356
1.17111
1.43253
1.69495
1.95869
2.22376
2.48899
2.7498
2.99176
3.17085
3.13906
2.30013
0.1283
0.384848
0.641242
0.897397
1.15326
1.40883
1.66414
1.91922
2.17385
2.42693
2.67493
2.90851
3.10672
3.23822
3.36428
0.126675
0.379877
0.632637
0.884657
1.13565
1.38534
1.63352
1.88009
2.12504
2.36841
2.61013
2.84989
3.08893
3.34124
3.67646
0.125153
0.37522
0.624558
0.87265
1.11895
1.36292
1.60406
1.84211
2.07734
2.31105
2.54671
2.79185
3.06195
3.38674
3.81552
0.123801
0.371076
0.617354
0.861901
1.1039
1.34248
1.57676
1.80613
2.0307
2.25237
2.47673
2.71654
2.99704
3.36008
3.8475
0.122676
0.367631
0.61136
0.852932
1.09125
1.32505
1.55291
1.7735
1.9861
2.19183
2.39604
2.61303
2.87482
3.24711
3.85755
0.121828
0.365041
0.606874
0.846232
1.08176
1.31176
1.53412
1.74643
1.9463
2.13237
2.30649
2.47846
2.6759
2.9688
3.55684
0.121289
0.363414
0.604113
0.8422
1.07612
1.30378
1.52233
1.72801
1.9161
2.08121
2.21847
2.32626
2.41072
2.48559
2.51212
0.121065
0.362781
0.60317
0.841067
1.07484
1.30214
1.51948
1.72182
1.90185
2.0494
2.15095
2.19029
2.15223
2.03599
1.92382
0.121131
0.36307
0.60396
0.842798
1.07807
1.30741
1.52707
1.73111
1.91017
2.04955
2.12664
2.10814
1.94804
1.5836
0.878519
0.12142
0.36409
0.606175
0.847005
1.08542
1.3194
1.54549
1.75776
1.94606
2.09295
2.16875
2.12437
1.88576
1.36779
0.563749
0.121826
0.365516
0.609261
0.852889
1.09584
1.33687
1.57351
1.80106
2.0107
2.18575
2.29434
2.27552
2.01751
1.35067
0.232351
0.122205
0.3669
0.612427
0.859236
1.10759
1.35739
1.60783
1.85679
2.09936
2.32472
2.50845
2.59284
2.43319
1.64706
-0.794198
0.122385
0.367706
0.614698
0.864505
1.11833
1.37744
1.64318
1.91696
2.2
2.49264
2.79159
3.07965
3.28391
3.0928
1.1044
0.122179
0.36735
0.615007
0.866974
1.12538
1.39286
1.67294
1.97069
2.294
2.65624
3.0824
3.62475
4.40906
5.78633
8.87994
8.71486
5.47636
4.07784
3.3046
2.78431
2.38461
2.05068
1.75644
1.48793
1.23699
0.998394
0.76859
0.544951
0.325409
0.108215
0.486729
2.64246
2.89096
2.72278
2.46736
2.2008
1.94054
1.68967
1.44766
1.21316
0.984776
0.76119
0.54121
0.32374
0.107751
-1.48047
1.13311
1.99337
2.20151
2.15813
2.01262
1.82391
1.61677
1.40216
1.18509
0.96782
0.751281
0.535723
0.321041
0.106946
-0.236724
0.841314
1.54858
1.85491
1.91985
1.85446
1.7201
1.54906
1.35837
1.15715
0.950351
0.740685
0.529622
0.317933
0.105998
-0.0703913
0.806969
1.38221
1.67597
1.77211
1.74423
1.64178
1.49501
1.32191
1.13309
0.934869
0.731055
0.523953
0.314993
0.105093
0.229881
0.982421
1.41131
1.6343
1.71052
1.68582
1.59424
1.45926
1.29636
1.11555
0.923273
0.723706
0.519575
0.312706
0.104387
1.16782
1.38265
1.58342
1.6946
1.71906
1.67386
1.57685
1.44291
1.28325
1.10597
0.916743
0.719529
0.517099
0.311428
0.103996
1.70228
1.79267
1.81776
1.81519
1.77599
1.69789
1.58513
1.44442
1.2824
1.1047
0.915766
0.718981
0.516877
0.311377
0.103993
2.66195
2.24807
2.07136
1.96126
1.85999
1.74599
1.61284
1.46075
1.29244
1.11124
0.920254
0.722135
0.51902
0.312636
0.10441
2.97717
2.53883
2.27874
2.10126
1.95287
1.80741
1.65373
1.48836
1.31146
1.12458
0.929712
0.728768
0.523441
0.31518
0.105242
3.10271
2.70586
2.4288
2.2211
2.04376
1.87457
1.70274
1.52401
1.33741
1.14349
0.943406
0.73846
0.529907
0.318894
0.106454
3.14032
2.78975
2.53074
2.3199
2.12904
1.94357
1.75657
1.56516
1.36848
1.16671
0.960495
0.750669
0.538094
0.323605
0.107992
3.1101
2.8101
2.59928
2.40489
2.21061
2.01364
1.81349
1.60998
1.40311
1.19304
0.980115
0.764803
0.54762
0.329103
0.109789
2.88058
2.76857
2.65646
2.48986
2.29408
2.08594
1.87276
1.65718
1.43998
1.22137
1.00142