/*--------------------------------*- C++ -*----------------------------------*\
| =========                 |                                                 |
| \\      /  F ield         | OpenFOAM: The Open Source CFD Toolbox           |
|  \\    /   O peration     | Version:  5.x                                   |
|   \\  /    A nd           | Web:      www.OpenFOAM.org                      |
|    \\/     M anipulation  |                                                 |
\*---------------------------------------------------------------------------*/
FoamFile
{
    version     2.0;
    format      ascii;
    class       volScalarField;
    location    "1.5";
    object      gradTx;
}
// * * * * * * * * * * * * * * * * * * * * * * * * * * * * * * * * * * * * * //

dimensions      [0 -1 0 1 0 0 0];

internalField   nonuniform List<scalar> 
6300
(
-52.5322
-52.488
-52.3994
-52.2661
-52.0877
-51.8638
-51.5942
-51.2787
-50.9174
-50.511
-50.0605
-49.5677
-49.0349
-48.4645
-47.8594
-52.5758
-52.5317
-52.4434
-52.3105
-52.1325
-51.909
-51.6395
-51.3238
-50.9619
-50.5544
-50.1023
-49.6073
-49.0719
-48.4987
-47.891
-52.6628
-52.6191
-52.5314
-52.3993
-52.2222
-51.9994
-51.7304
-51.4144
-51.0515
-50.6418
-50.1863
-49.6868
-49.146
-48.5671
-47.9539
-52.7928
-52.7496
-52.663
-52.5324
-52.3569
-52.1355
-51.8674
-51.5515
-51.1872
-50.7744
-50.3138
-49.8072
-49.2575
-48.6691
-48.0467
-52.9653
-52.923
-52.838
-52.7096
-52.5367
-52.3178
-52.0516
-51.7363
-51.3708
-50.9542
-50.4867
-49.97
-49.4075
-48.8045
-48.168
-53.1794
-53.1384
-53.0558
-52.9307
-52.7617
-52.5469
-52.2841
-51.9708
-51.6048
-51.1842
-50.7082
-50.178
-49.5973
-48.973
-48.3149
-53.4339
-53.3946
-53.3154
-53.1951
-53.0318
-52.8233
-52.5663
-52.2574
-51.8928
-51.469
-50.9834
-50.4359
-49.8302
-49.1748
-48.4839
-53.7269
-53.69
-53.6153
-53.5016
-53.3466
-53.1474
-52.8998
-52.5991
-52.2395
-51.8149
-51.3199
-50.7516
-50.1121
-49.4116
-48.6703
-54.0562
-54.0223
-53.9536
-53.8487
-53.705
-53.519
-53.2858
-52.999
-52.6504
-52.2305
-51.7291
-51.138
-50.4546
-49.6888
-48.8686
-54.4187
-54.3885
-54.3274
-54.2337
-54.1049
-53.9371
-53.7248
-53.46
-53.132
-52.727
-52.2276
-51.616
-50.879
-50.0199
-49.0746
-54.8106
-54.7849
-54.7329
-54.6531
-54.5431
-54.3991
-54.2154
-53.9834
-53.6901
-53.317
-52.8379
-52.2189
-51.4248
-50.4367
-49.2901
-55.2274
-55.2069
-55.1655
-55.1019
-55.0145
-54.9001
-54.7537
-54.5673
-54.3275
-54.0126
-53.5872
-52.9964
-52.1639
-51.0114
-49.5353
-55.6638
-55.649
-55.6192
-55.5739
-55.5121
-55.4323
-55.3314
-55.2038
-55.0394
-54.818
-54.5012
-54.0148
-53.2224
-51.9089
-49.8819
-56.1142
-56.1053
-56.0876
-56.0614
-56.027
-55.9848
-55.9349
-55.8767
-55.8074
-55.7181
-55.5841
-55.3382
-54.8009
-53.5191
-50.5841
-56.5726
-56.5695
-56.5637
-56.5563
-56.5489
-56.5442
-56.546
-56.56
-56.5947
-56.6621
-56.778
-56.952
-57.1227
-56.7821
-52.8632
-47.2777
-46.7257
-46.1537
-45.5622
-44.9512
-44.3204
-43.6696
-42.9984
-42.3068
-41.5953
-40.8648
-40.117
-39.3541
-38.579
-37.7946
-37.0045
-36.212
-35.4209
-34.6345
-33.8566
-33.0906
-32.3398
-31.6076
-30.8969
-30.2105
-29.5508
-28.92
-28.3198
-27.7517
-27.2167
-26.7157
-26.2492
-25.8173
-25.4202
-25.0578
-24.7298
-24.436
-24.176
-23.9495
-23.7562
-23.5956
-23.4676
-23.3717
-23.3078
-23.2758
-23.2758
-23.3079
-23.3725
-23.4701
-23.6013
-23.7665
-23.9663
-24.2009
-24.4705
-24.7751
-25.1143
-25.4876
-25.8942
-26.3332
-26.8034
-27.3033
-27.8316
-28.3865
-28.9666
-29.5701
-30.1953
-30.8406
-31.5041
-32.184
-32.8784
-33.5855
-34.3033
-35.0302
-35.7642
-36.5038
-37.2472
-37.9927
-38.7386
-39.4834
-40.2252
-40.9627
-41.6942
-42.4184
-43.1338
-43.839
-44.5322
-45.2115
-45.8749
-46.5198
-47.1438
-47.3073
-46.7541
-46.1815
-45.5899
-44.9792
-44.3491
-43.6987
-43.0276
-42.3354
-41.6225
-40.8896
-40.1386
-39.3719
-38.5923
-37.8031
-37.0079
-36.2104
-35.4141
-34.6227
-33.8398
-33.0689
-32.3135
-31.5769
-30.8623
-30.1724
-29.5097
-28.8764
-28.2742
-27.7045
-27.1685
-26.6667
-26.1998
-25.7679
-25.371
-25.0089
-24.6813
-24.388
-24.1285
-23.9025
-23.7097
-23.5497
-23.422
-23.3265
-23.2627
-23.2306
-23.2303
-23.2618
-23.3258
-23.4226
-23.553
-23.7176
-23.9169
-24.1513
-24.421
-24.7259
-25.0659
-25.4402
-25.8483
-26.289
-26.7611
-27.2632
-27.7937
-28.3509
-28.9334
-29.5393
-30.167
-30.8148
-31.4809
-32.1634
-32.8605
-33.5702
-34.2906
-35.0199
-35.7564
-36.4984
-37.2441
-37.992
-38.7403
-39.4873
-40.2314
-40.9709
-41.7045
-42.4307
-43.1483
-43.8558
-44.5517
-45.2341
-45.9008
-46.5494
-47.1771
-47.3659
-46.8102
-46.2363
-45.6447
-45.0351
-44.4065
-43.7575
-43.087
-42.3939
-41.6781
-40.9406
-40.183
-39.4081
-38.6193
-37.8203
-37.015
-36.2071
-35.4005
-34.5989
-33.8059
-33.0252
-32.2604
-31.5151
-30.7925
-30.0956
-29.4269
-28.7885
-28.1823
-27.6095
-27.0713
-26.5682
-26.1007
-25.6688
-25.2723
-24.911
-24.5843
-24.292
-24.0335
-23.8086
-23.6168
-23.4578
-23.3311
-23.2362
-23.1728
-23.1406
-23.1396
-23.17
-23.2324
-23.3276
-23.4563
-23.6195
-23.8177
-24.0516
-24.3214
-24.6271
-24.9685
-25.3451
-25.7561
-26.2002
-26.6763
-27.1827
-27.7177
-28.2797
-28.8668
-29.4775
-30.1101
-30.763
-31.4343
-32.1222
-32.8247
-33.5397
-34.2653
-34.9995
-35.7408
-36.4875
-37.2381
-37.9907
-38.7438
-39.4954
-40.2439
-40.9876
-41.7251
-42.4551
-43.1768
-43.8889
-44.5901
-45.2787
-45.9524
-46.6085
-47.244
-47.4518
-46.8918
-46.3161
-45.7251
-45.118
-44.4929
-43.8472
-43.1785
-42.4847
-41.7651
-41.0202
-40.2522
-39.4645
-38.6612
-37.8468
-37.0257
-36.2022
-35.38
-34.5629
-33.7545
-32.9588
-32.1797
-31.4209
-30.6862
-29.9785
-29.3008
-28.6549
-28.0427
-27.4654
-26.924
-26.4191
-25.9509
-25.5193
-25.1238
-24.7638
-24.4387
-24.1479
-23.891
-23.6676
-23.4775
-23.3202
-23.1951
-23.1015
-23.0388
-23.0065
-23.0044
-23.033
-23.0928
-23.1851
-23.3109
-23.4716
-23.668
-23.901
-24.1708
-24.4777
-24.8213
-25.2012
-25.6166
-26.0662
-26.5485
-27.0616
-27.6037
-28.1727
-28.7668
-29.3846
-30.0245
-30.685
-31.3643
-32.0604
-32.7712
-33.4943
-34.2276
-34.9692
-35.7176
-36.4713
-37.2289
-37.9888
-38.7492
-39.508
-40.2632
-41.0129
-41.756
-42.4914
-43.2187
-43.9372
-44.6463
-45.3441
-46.0286
-46.6966
-47.3445
-47.5621
-46.9957
-46.4176
-45.8284
-45.2264
-44.6085
-43.9699
-43.3059
-42.6127
-41.8883
-41.1331
-40.3499
-39.5433
-38.7191
-37.8829
-37.0403
-36.1955
-35.3524
-34.5144
-33.6853
-32.869
-32.0699
-31.2926
-30.5411
-29.8191
-29.1291
-28.4734
-27.8534
-27.2702
-26.7249
-26.2178
-25.7491
-25.3184
-24.9247
-24.5671
-24.2443
-23.9557
-23.7009
-23.4797
-23.2918
-23.137
-23.0145
-22.9231
-22.8618
-22.8296
-22.8261
-22.8516
-22.9074
-22.9949
-23.1162
-23.2729
-23.4665
-23.698
-23.9678
-24.276
-24.6226
-25.007
-25.4286
-25.8858
-26.3769
-26.8996
-27.4513
-28.0299
-28.6334
-29.2604
-29.9098
-30.5803
-31.2704
-31.9779
-32.7001
-33.4344
-34.1781
-34.9294
-35.6868
-36.4495
-37.2164
-37.9862
-38.7568
-39.5257
-40.2901
-41.0478
-41.7975
-42.539
-43.2726
-43.9989
-44.7179
-45.4284
-46.128
-46.8129
-47.4787
-47.6923
-47.116
-46.5348
-45.9495
-45.3577
-44.7535
-44.1289
-43.4752
-42.7855
-42.0558
-41.2863
-40.4812
-39.6476
-38.7941
-37.9286
-37.0579
-36.1865
-35.3175
-34.4536
-33.5979
-32.7547
-31.9293
-31.1274
-30.3542
-29.6137
-28.9088
-28.241
-27.6115
-27.0212
-26.4711
-25.9618
-25.4934
-25.0648
-24.6746
-24.3208
-24.0015
-23.7158
-23.4633
-23.2444
-23.0594
-22.9082
-22.7897
-22.7023
-22.6437
-22.6121
-22.6067
-22.6277
-22.677
-22.7571
-22.8712
-23.0219
-23.2113
-23.4406
-23.7101
-24.0199
-24.37
-24.7601
-25.1897
-25.6573
-26.1606
-26.6963
-27.261
-27.8518
-28.4667
-29.1046
-29.7651
-30.4479
-31.1518
-31.8744
-32.6121
-33.3611
-34.118
-34.8808
-35.6486
-36.4215
-37.1998
-37.9824
-38.7669
-39.5496
-40.3263
-41.0938
-41.8507
-42.5976
-43.3367
-44.0708
-44.8013
-45.528
-46.2479
-46.9563
-47.647
-47.835
-47.2433
-46.6574
-46.0797
-45.5065
-44.9278
-44.3295
-43.6963
-43.0156
-42.2803
-41.4906
-40.6534
-39.7807
-38.8862
-37.9821
-37.0768
-36.1743
-35.2756
-34.3811
-33.4927
-32.615
-31.7553
-30.9213
-30.1205
-29.3577
-28.6353
-27.954
-27.3137
-26.715
-26.1592
-25.6477
-25.1807
-24.7568
-24.3729
-24.0254
-23.7112
-23.4286
-23.178
-22.9609
-22.7791
-22.6329
-22.5212
-22.4408
-22.3875
-22.3579
-22.3499
-22.364
-22.4029
-22.4713
-22.5742
-22.716
-22.8996
-23.126
-23.3951
-23.7066
-24.0604
-24.4572
-24.8968
-25.3782
-25.8981
-26.4517
-27.0337
-27.6397
-28.2673
-28.9165
-29.5888
-30.2856
-31.0068
-31.7494
-32.5081
-33.2766
-34.0498
-34.8251
-35.603
-36.3861
-37.1769
-37.9758
-38.7796
-39.582
-40.3757
-41.1551
-41.918
-42.6669
-43.4077
-44.1471
-44.8899
-45.6367
-46.3838
-47.1243
-47.8496
-47.9792
-47.3616
-46.7678
-46.2033
-45.663
-45.1302
-44.5802
-43.9857
-43.3243
-42.5833
-41.7631
-40.8768
-39.9453
-38.9922
-38.0373
-37.0916
-36.1568
-35.228
-34.3001
-33.3722
-32.45
-31.5443
-30.668
-29.8323
-29.0438
-28.3034
-27.6085
-26.9565
-26.3475
-25.7841
-25.27
-24.8066
-24.3917
-24.0194
-23.6827
-23.3759
-23.0962
-22.8453
-22.6276
-22.448
-22.3089
-22.2085
-22.1408
-22.0981
-22.0733
-22.0622
-22.0652
-22.0873
-22.1365
-22.2218
-22.3506
-22.5269
-22.7507
-23.02
-23.333
-23.6899
-24.093
-24.5446
-25.0443
-25.5878
-26.1668
-26.7724
-27.397
-28.0374
-28.6957
-29.3774
-30.0886
-30.8314
-31.6016
-32.3901
-33.1855
-33.9787
-34.7659
-35.5502
-36.3395
-37.1424
-37.9622
-38.7942
-39.6267
-40.4456
-41.2397
-42.0051
-42.7476
-43.4803
-44.2183
-44.9724
-45.7445
-46.5286
-47.3138
-48.0872
-48.1079
-47.4455
-46.8358
-46.2918
-45.8084
-45.3574
-44.8946
-44.3714
-43.7474
-43.0001
-42.1311
-41.165
-40.1409
-39.1011
-38.0793
-37.0911
-36.1306
-35.1793
-34.2193
-33.244
-32.2616
-31.2913
-30.3565
-29.4767
-28.6611
-27.9062
-27.2015
-26.5381
-25.9148
-25.3387
-24.8198
-24.3634
-23.9657
-23.6153
-23.2979
-23.0021
-22.7232
-22.4655
-22.24
-22.0592
-21.93
-21.8493
-21.8057
-21.7838
-21.7697
-21.7549
-21.7398
-21.7333
-21.7505
-21.8076
-21.9177
-22.0864
-22.3106
-22.5826
-22.8968
-23.2535
-23.6597
-24.1236
-24.6481
-25.2266
-25.8444
-26.4841
-27.1319
-27.7824
-28.4415
-29.1242
-29.8466
-30.6167
-31.4279
-32.2625
-33.098
-33.9165
-34.711
-35.49
-36.2736
-37.0836
-37.9311
-38.8079
-39.6909
-40.5511
-41.3653
-42.125
-42.842
-43.5447
-44.266
-45.0284
-45.8344
-46.6713
-47.5198
-48.3608
-48.196
-47.4533
-46.8086
-46.2927
-45.9068
-45.6016
-45.2958
-44.9022
-44.3481
-43.592
-42.6388
-41.5369
-40.3593
-39.184
-38.0729
-37.0508
-36.0915
-35.1434
-34.1606
-33.1262
-32.0561
-30.9877
-29.9661
-29.0289
-28.1915
-27.4374
-26.7357
-26.0623
-25.4146
-24.8116
-24.2801
-23.8363
-23.4725
-23.1642
-22.8826
-22.6046
-22.3205
-22.0399
-21.7889
-21.5971
-21.4821
-21.4375
-21.4399
-21.4592
-21.4679
-21.449
-21.4026
-21.3463
-21.3078
-21.3178
-21.4011
-21.5668
-21.8023
-22.0854
-22.3999
-22.7466
-23.144
-23.6159
-24.175
-24.8096
-25.491
-26.1849
-26.8635
-27.5154
-28.1538
-28.8142
-29.5364
-30.343
-31.2211
-32.1336
-33.0353
-33.8888
-34.6788
-35.4234
-36.1696
-36.971
-37.8576
-38.8128
-39.7877
-40.7227
-41.569
-42.3061
-42.9567
-43.582
-44.2542
-45.0211
-45.8795
-46.7966
-47.736
-48.6718
-48.2066
-47.3194
-46.5956
-46.1056
-45.8886
-45.8459
-45.8232
-45.6641
-45.2393
-44.4679
-43.3606
-42.0178
-40.5743
-39.1744
-37.9387
-36.9202
-36.0364
-35.1576
-34.1767
-33.0601
-31.8485
-30.6171
-29.4545
-28.4381
-27.6024
-26.8935
-26.2296
-25.5501
-24.8505
-24.1823
-23.6147
-23.1949
-22.8999
-22.6753
-22.463
-22.2168
-21.9135
-21.5725
-21.2533
-21.0252
-20.9336
-20.9589
-21.0507
-21.1507
-21.2068
-21.1835
-21.0808
-20.9344
-20.7961
-20.7233
-20.7667
-20.9475
-21.2263
-21.544
-21.8573
-22.1675
-22.5217
-22.9833
-23.5939
-24.326
-25.1201
-25.9084
-26.6344
-27.2682
-27.8353
-28.4156
-29.1053
-29.9667
-30.9652
-32.0208
-33.0421
-33.9528
-34.7123
-35.3546
-35.9863
-36.7356
-37.6852
-38.7893
-39.9416
-41.0219
-41.9299
-42.6114
-43.1073
-43.5513
-44.1058
-44.8813
-45.8394
-46.8892
-47.957
-49.0193
-48.0818
-46.9496
-46.0454
-45.5249
-45.619
-46.0608
-46.5464
-46.8084
-46.6296
-45.8271
-44.4215
-42.6435
-40.7264
-38.9284
-37.492
-36.5958
-35.9742
-35.3192
-34.3887
-33.131
-31.6698
-30.1477
-28.7331
-27.5873
-26.8313
-26.2855
-25.7468
-25.0674
-24.242
-23.4087
-22.7371
-22.3745
-22.2268
-22.1695
-22.0932
-21.9118
-21.5619
-21.0746
-20.5875
-20.2577
-20.2176
-20.3857
-20.6507
-20.9062
-21.0612
-21.0334
-20.8229
-20.5121
-20.1908
-19.9627
-19.9353
-20.1883
-20.5949
-21.0102
-21.3199
-21.5259
-21.7457
-22.1371
-22.8384
-23.7542
-24.7584
-25.7223
-26.5389
-27.1178
-27.4983
-27.8601
-28.4277
-29.3934
-30.6276
-31.9578
-33.2086
-34.2348
-34.915
-35.3011
-35.6339
-36.2119
-37.2905
-38.6963
-40.1992
-41.5692
-42.6165
-43.1838
-43.332
-43.3612
-43.6387
-44.4782
-45.6665
-46.9552
-48.185
-49.3842
-47.6924
-46.2512
-44.9426
-44.0594
-44.8488
-46.2126
-47.5918
-48.5871
-48.9179
-48.0546
-46.0189
-43.4697
-40.7072
-38.1618
-36.2675
-35.8764
-35.9603
-35.8776
-35.0723
-33.4954
-31.5792
-29.5238
-27.6248
-26.1759
-25.7578
-25.6676
-25.4672
-24.7954
-23.6455
-22.4029
-21.415
-21.2455
-21.4239
-21.6919
-21.8755
-21.8505
-21.4086
-20.5771
-19.696
-19.0736
-19.2028
-19.6737
-20.2651
-20.8075
-21.1797
-21.1472
-20.7101
-20.1057
-19.4522
-18.9138
-18.7009
-19.2087
-19.9517
-20.6291
-20.9327
-20.8651
-20.7231
-20.8455
-21.7746
-23.0558
-24.4553
-25.7491
-26.7862
-27.2537
-27.1887
-27.0087
-27.1772
-28.4337
-30.1523
-32.0093
-33.6988
-35.0155
-35.5412
-35.3245
-34.9284
-34.9672
-36.4245
-38.4636
-40.6478
-42.5808
-43.9943
-44.3591
-43.7278
-42.8133
-42.3616
-43.5725
-45.3483
-47.1055
-48.4564
-49.6422
-46.5182
-45.3616
-43.2268
-40.1843
-43.2509
-46.3418
-49.1894
-51.3226
-52.9257
-51.9701
-48.3555
-44.603
-40.3753
-36.4576
-32.8786
-34.4731
-36.1865
-37.4768
-36.8672
-34.3488
-31.6894
-28.675
-25.869
-23.2807
-24.2128
-25.209
-25.8671
-25.2123
-23.1833
-21.0308
-18.9154
-19.6161
-20.493
-21.3363
-21.9594
-22.3901
-21.8176
-20.1518
-18.433
-16.8081
-17.6968
-18.7893
-19.9509
-20.955
-21.8818
-21.8448
-20.8396
-19.7708
-18.5487
-17.3973
-16.4296
-17.8916
-19.4037
-20.7872
-21.0809
-20.3121
-19.3208
-18.3931
-20.2045
-22.1879
-24.3051
-26.1463
-27.8544
-28.1573
-27.0452
-25.6564
-24.3605
-26.8092
-29.4781
-32.3024
-34.7265
-36.9353
-37.237
-35.6064
-33.5971
-31.6797
-34.721
-38.0219
-41.4578
-44.3403
-46.8821
-46.9683
-44.5312
-41.5985
-38.6899
-41.8526
-45.0562
-47.84
-48.9643
-49.1134
-41.5949
-45.8794
-42.8174
-27.5121
-41.6178
-46.821
-51.8156
-54.8211
-60.618
-59.7142
-50.8908
-46.4207
-39.5971
-34.2657
-22.04
-32.8986
-37.0224
-41.8124
-41.4111
-35.4058
-32.3111
-27.5266
-23.8001
-15.3166
-22.5758
-25.2381
-28.1581
-27.6086
-22.8996
-19.6061
-12.3612
-17.7334
-19.6114
-21.2988
-22.321
-24.3752
-23.8018
-19.8038
-17.0357
-10.9239
-15.8982
-17.8063
-19.8646
-21.2149
-23.973
-23.9378
-21.0616
-19.6578
-17.5443
-15.617
-10.6602
-16.503
-19.0418
-22.5157
-22.7601
-20.0805
-17.8278
-11.997
-18.3873
-21.1283
-24.5532
-26.7362
-30.9468
-31.0993
-27.3009
-24.1708
-16.1524
-24.8679
-28.5806
-33.1721
-36.0648
-41.6017
-41.7155
-36.4338
-32.1337
-21.2515
-32.6437
-37.3857
-43.0647
-46.5902
-53.3055
-53.2106
-46.0478
-40.3484
-26.2751
-40.0735
-45.3679
-50.9636
-50.8765
-44.1445
-47.8013
-48.4834
-49.1232
-49.7172
-50.2625
-50.7574
-51.2006
-51.5919
-51.9316
-52.2202
-52.4586
-52.6479
-52.7889
-52.8824
-52.929
-47.8387
-48.525
-49.1683
-49.765
-50.3123
-50.8082
-51.2517
-51.6428
-51.9818
-52.2694
-52.5069
-52.6952
-52.8355
-52.9285
-52.9748
-47.9141
-48.6088
-49.2594
-49.8616
-50.4126
-50.9105
-51.3545
-51.7449
-52.0824
-52.3681
-52.6035
-52.7899
-52.9285
-53.0203
-53.066
-48.028
-48.7362
-49.398
-50.0087
-50.5652
-51.0658
-51.5102
-51.8991
-52.2338
-52.5163
-52.7482
-52.9314
-53.0673
-53.1573
-53.202
-48.1816
-48.9092
-49.5869
-50.2093
-50.7729
-51.2765
-51.7204
-52.1065
-52.4368
-52.7141
-52.9408
-53.1192
-53.2513
-53.3386
-53.382
-48.377
-49.1313
-49.8306
-50.4679
-51.0399
-51.5459
-51.9878
-52.3686
-52.692
-52.9615
-53.1807
-53.3525
-53.4793
-53.5628
-53.6043
-48.6171
-49.4078
-50.1354
-50.7912
-51.372
-51.8788
-52.3156
-52.6874
-53
-53.2584
-53.4672
-53.6299
-53.7496
-53.8282
-53.8672
-48.9066
-49.747
-50.5112
-51.1887
-51.7774
-52.2812
-52.7074
-53.0648
-53.3613
-53.6041
-53.7986
-53.9495
-54.0599
-54.1324
-54.1682
-49.2531
-50.1616
-50.973
-51.6745
-52.267
-52.7603
-53.1676
-53.5023
-53.7757
-53.997
-54.1729
-54.3085
-54.4074
-54.4721
-54.504
-49.6682
-50.6725
-51.5441
-52.2683
-52.8548
-53.3246
-53.6998
-54.0004
-54.2416
-54.4344
-54.5865
-54.7032
-54.788
-54.8435
-54.8709
-50.1699
-51.315
-52.2618
-52.9988
-53.5583
-53.982
-54.3059
-54.5573
-54.7552
-54.9117
-55.0345
-55.1287
-55.1972
-55.2419
-55.264
-50.7847
-52.1549
-53.1882
-53.9062
-54.3962
-54.7375
-54.9831
-55.1671
-55.3095
-55.4219
-55.5105
-55.5789
-55.629
-55.6619
-55.6782
-51.5568
-53.3311
-54.429
-55.0414
-55.383
-55.587
-55.7207
-55.8175
-55.8932
-55.955
-56.0058
-56.0463
-56.0769
-56.0974
-56.1077
-52.6312
-55.1829
-56.1537
-56.446
-56.5072
-56.5052
-56.4938
-56.488
-56.4901
-56.4985
-56.5103
-56.5228
-56.5339
-56.542
-56.5464
-55.0313
-58.6143
-58.5558
-58.0808
-57.6941
-57.4313
-57.2597
-57.1495
-57.0802
-57.038
-57.0133
-56.9997
-56.9927
-56.9894
-56.9882
-56.9948
-56.9966
-57.0008
-57.009
-57.0241
-57.0503
-57.0943
-57.1668
-57.2856
-57.4822
-57.8181
-58.4335
-59.719
-63.0529
-74.4576
-57.3768
-57.3825
-57.3946
-57.4153
-57.4479
-57.4975
-57.5725
-57.6858
-57.8592
-58.1301
-58.5686
-59.3143
-60.6567
-63.1478
-67.1359
-57.7542
-57.7631
-57.782
-57.8128
-57.8592
-57.9266
-58.0235
-58.1627
-58.3643
-58.6607
-59.1048
-59.7801
-60.7965
-62.2026
-63.6877
-58.1247
-58.1362
-58.1602
-58.1988
-58.2553
-58.3348
-58.4447
-58.5957
-58.8029
-59.0878
-59.4796
-60.0087
-60.665
-61.2015
-60.1847
-58.4864
-58.4999
-58.5277
-58.5718
-58.6349
-58.7213
-58.8369
-58.989
-59.1866
-59.4398
-59.7584
-60.1485
-60.616
-61.2786
-63.1914
-58.8381
-58.8529
-58.8833
-58.9308
-58.9977
-59.0872
-59.2033
-59.3501
-59.5307
-59.7454
-59.9872
-60.2337
-60.4307
-60.4867
-60.3294
-59.1786
-59.1943
-59.2263
-59.2757
-59.3443
-59.4342
-59.5479
-59.6869
-59.8501
-60.0311
-60.2124
-60.3526
-60.3423
-59.8426
-57.3679
-59.5075
-59.5236
-59.5563
-59.6065
-59.6754
-59.7644
-59.8746
-60.0062
-60.156
-60.3153
-60.4661
-60.5754
-60.5926
-60.5697
-61.7268
-59.8243
-59.8406
-59.8736
-59.9237
-59.992
-60.0793
-60.1862
-60.3121
-60.4539
-60.6041
-60.7486
-60.8614
-60.8696
-60.4768
-57.8702
-60.129
-60.1453
-60.178
-60.2277
-60.2949
-60.3802
-60.4842
-60.6063
-60.7446
-60.8952
-61.0531
-61.2194
-61.424
-61.9207
-64.5214
-60.4216
-60.4376
-60.4699
-60.5187
-60.5845
-60.6678
-60.7692
-60.8886
-61.0256
-61.1795
-61.3518
-61.5501
-61.7743
-61.9032
-60.6815
-60.7021
-60.7179
-60.7495
-60.7972
-60.8613
-60.9425
-61.0412
-61.158
-61.2936
-61.4495
-61.6324
-61.8622
-62.1896
-62.8231
-65.0238
-60.9709
-60.9862
-61.017
-61.0634
-61.1258
-61.2045
-61.3003
-61.4138
-61.546
-61.6992
-61.8802
-62.1058
-62.3909
-62.654
-61.8855
-61.2281
-61.243
-61.2729
-61.3179
-61.3782
-61.4543
-61.5467
-61.6559
-61.7826
-61.9279
-62.0971
-62.3073
-62.6064
-63.2007
-65.1864
-61.4741
-61.4885
-61.5174
-61.5609
-61.6191
-61.6924
-61.781
-61.8853
-62.0048
-62.1384
-62.2854
-62.4463
-62.6154
-62.7806
-62.9159
-61.7091
-61.723
-61.7509
-61.7928
-61.8489
-61.9193
-62.0042
-62.1034
-62.2157
-62.338
-62.4639
-62.5789
-62.6259
-62.3807
-60.7509
-61.9335
-61.9469
-61.9738
-62.0141
-62.068
-62.1356
-62.217
-62.3117
-62.4183
-62.5332
-62.65
-62.7581
-62.8379
-62.9418
-63.9321
-62.1476
-62.1605
-62.1864
-62.2252
-62.2771
-62.342
-62.4201
-62.511
-62.6137
-62.7254
-62.842
-62.9562
-63.0318
-62.8869
-61.3461
-62.3518
-62.3643
-62.3892
-62.4265
-62.4763
-62.5387
-62.6138
-62.7015
-62.8013
-62.9124
-63.0357
-63.1805
-63.3773
-63.8007
-65.6024
-62.5464
-62.5584
-62.5823
-62.6183
-62.6662
-62.7262
-62.7984
-62.883
-62.9797
-63.089
-63.2143
-63.368
-63.564
-63.7569
-63.2215
-62.7317
-62.7432
-62.7663
-62.8009
-62.847
-62.9047
-62.974
-63.0552
-63.1479
-63.2526
-63.3731
-63.5254
-63.7514
-64.2182
-65.7611
-62.9079
-62.9191
-62.9413
-62.9747
-63.0191
-63.0745
-63.1411
-63.2186
-63.3064
-63.4034
-63.5099
-63.6309
-63.77
-63.9318
-64.1041
-63.0754
-63.0862
-63.1077
-63.1399
-63.1828
-63.2362
-63.3001
-63.3742
-63.4569
-63.5457
-63.6366
-63.723
-63.7714
-63.6376
-62.5789
-63.2345
-63.2449
-63.2658
-63.2969
-63.3384
-63.3901
-63.4518
-63.5229
-63.6017
-63.6846
-63.7663
-63.8408
-63.8979
-63.9852
-64.7107
-63.3853
-63.3954
-63.4157
-63.4459
-63.4862
-63.5365
-63.5965
-63.6656
-63.7422
-63.8224
-63.901
-63.9701
-64.0019
-63.8889
-62.979
-63.528
-63.5379
-63.5576
-63.5871
-63.6265
-63.6756
-63.7344
-63.8025
-63.8785
-63.9595
-64.0421
-64.1245
-64.2049
-64.3456
-65.1667
-63.6628
-63.6725
-63.6918
-63.7207
-63.7592
-63.8074
-63.8654
-63.9331
-64.0097
-64.0936
-64.1835
-64.2794
-64.3647
-64.3292
-63.3982
-63.79
-63.7994
-63.8183
-63.8466
-63.8844
-63.9319
-63.9894
-64.0569
-64.1344
-64.2216
-64.3205
-64.4411
-64.6067
-64.9341
-66.17
-63.9095
-63.9187
-63.9373
-63.9651
-64.0023
-64.0491
-64.1058
-64.173
-64.2506
-64.3394
-64.4425
-64.5708
-64.7348
-64.9077
-64.6387
-64.0215
-64.0306
-64.0488
-64.0761
-64.1127
-64.1588
-64.2147
-64.2809
-64.3577
-64.4453
-64.547
-64.675
-64.8552
-65.1875
-66.1719
-64.1262
-64.1351
-64.153
-64.1799
-64.2158
-64.2611
-64.316
-64.3809
-64.4555
-64.5394
-64.6332
-64.7422
-64.8686
-65.0137
-65.1631
-64.2236
-64.2324
-64.25
-64.2764
-64.3118
-64.3562
-64.41
-64.4733
-64.5454
-64.6246
-64.7089
-64.7965
-64.8674
-64.8363
-64.2709
-64.3139
-64.3225
-64.3399
-64.3659
-64.4006
-64.4443
-64.4971
-64.5589
-64.6286
-64.7041
-64.7824
-64.8617
-64.9356
-65.0295
-65.4821
-64.3971
-64.4056
-64.4227
-64.4483
-64.4825
-64.5255
-64.5775
-64.6381
-64.7064
-64.7798
-64.8552
-64.9298
-64.9883
-64.9729
-64.5373
-64.4733
-64.4817
-64.4985
-64.5238
-64.5576
-64.6001
-64.6514
-64.7113
-64.7789
-64.852
-64.9284
-65.0085
-65.0908
-65.2077
-65.681
-64.5426
-64.5509
-64.5675
-64.5925
-64.626
-64.668
-64.7188
-64.7784
-64.8459
-64.9199
-64.9991
-65.0847
-65.1678
-65.1944
-64.7884
-64.605
-64.6132
-64.6297
-64.6545
-64.6876
-64.7293
-64.7798
-64.8391
-64.907
-64.9822
-65.0653
-65.162
-65.2824
-65.481
-66.1125
-64.6606
-64.6688
-64.6851
-64.7097
-64.7425
-64.7839
-64.8341
-64.8933
-64.9612
-65.0371
-65.122
-65.2221
-65.3411
-65.4665
-65.4025
-64.7095
-64.7176
-64.7338
-64.7582
-64.7908
-64.8319
-64.8818
-64.9406
-65.0081
-65.0837
-65.1683
-65.2684
-65.3937
-65.5829
-66.0377
-64.7516
-64.7597
-64.7758
-64.8001
-64.8325
-64.8733
-64.9228
-64.9811
-65.0479
-65.1221
-65.2036
-65.2964
-65.4005
-65.5144
-65.6252
-64.7871
-64.7951
-64.8112
-64.8353
-64.8676
-64.9081
-64.9573
-65.0151
-65.0808
-65.1532
-65.2312
-65.3159
-65.399
-65.4473
-65.3028
-64.8159
-64.8239
-64.8399
-64.864
-64.8961
-64.9365
-64.9853
-65.0426
-65.1076
-65.1785
-65.2541
-65.3356
-65.42
-65.5138
-65.7223
-64.8381
-64.8461
-64.8621
-64.8861
-64.9182
-64.9585
-65.0071
-65.0641
-65.1285
-65.1986
-65.2728
-65.3526
-65.4331
-65.4999
-65.4706
-64.8536
-64.8616
-64.8776
-64.9017
-64.9338
-64.9741
-65.0227
-65.0796
-65.1439
-65.2137
-65.2878
-65.3683
-65.4541
-65.5522
-65.728
-64.8625
-64.8705
-64.8866
-64.9107
-64.9429
-64.9833
-65.0321
-65.0892
-65.1537
-65.2238
-65.2984
-65.3795
-65.465
-65.55
-65.6044
-64.8647
-64.8727
-64.8889
-64.9132
-64.9456
-64.9863
-65.0354
-65.0929
-65.158
-65.2288
-65.3044
-65.3868
-65.4746
-65.5685
-65.6821
-64.8601
-64.8683
-64.8846
-64.9091
-64.9418
-64.9828
-65.0325
-65.0906
-65.1565
-65.2286
-65.3056
-65.3897
-65.4786
-65.5727
-65.7016
-64.8489
-64.8571
-64.8736
-64.8983
-64.9313
-64.9729
-65.0231
-65.0821
-65.1492
-65.2228
-65.302
-65.3884
-65.4773
-65.5523
-65.5476
-64.8308
-64.8391
-64.8558
-64.8808
-64.9143
-64.9564
-65.0073
-65.0673
-65.1356
-65.2111
-65.2932
-65.3848
-65.484
-65.5867
-65.6797
-64.8058
-64.8142
-64.8311
-64.8565
-64.8904
-64.9331
-64.9849
-65.0458
-65.1155
-65.1928
-65.2779
-65.375
-65.4867
-65.6274
-65.8896
-64.7739
-64.7824
-64.7996
-64.8253
-64.8597
-64.9031
-64.9556
-65.0175
-65.0883
-65.1671
-65.2543
-65.3543
-65.4677
-65.5831
-65.5871
-64.7349
-64.7436
-64.761
-64.7871
-64.8221
-64.8661
-64.9194
-64.9821
-65.0539
-65.1336
-65.2217
-65.3237
-65.4456
-65.6157
-66.0085
-64.6887
-64.6976
-64.7153
-64.7418
-64.7774
-64.8221
-64.8762
-64.9398
-65.0122
-65.0922
-65.1796
-65.2784
-65.3885
-65.493
-65.4043
-64.6353
-64.6443
-64.6624
-64.6894
-64.7256
-64.7711
-64.8261
-64.8905
-64.9636
-65.0437
-65.1295
-65.2244
-65.3338
-65.5041
-66.0634
-64.5746
-64.5838
-64.6021
-64.6297
-64.6665
-64.7129
-64.7689
-64.8345
-64.9086
-64.989
-65.0731
-65.1595
-65.2351
-65.2444
-64.8445
-64.5064
-64.5157
-64.5344
-64.5625
-64.6001
-64.6474
-64.7047
-64.7717
-64.8475
-64.9297
-65.015
-65.1015
-65.1809
-65.2684
-65.641
-64.4306
-64.4401
-64.4592
-64.4878
-64.5262
-64.5746
-64.6332
-64.7021
-64.7804
-64.8661
-64.9562
-65.0476
-65.1195
-65.0939
-64.6025
-64.3471
-64.3568
-64.3762
-64.4054
-64.4446
-64.494
-64.5541
-64.6251
-64.7066
-64.7973
-64.8965
-65.0066
-65.1242
-65.2422
-65.3435
-64.2557
-64.2656
-64.2854
-64.3151
-64.3551
-64.4056
-64.4671
-64.5401
-64.6246
-64.7204
-64.8292
-64.9595
-65.1269
-65.4015
-66.1682
-64.1564
-64.1664
-64.1865
-64.2168
-64.2575
-64.3089
-64.3716
-64.4463
-64.5331
-64.6325
-64.7471
-64.8858
-65.0537
-65.2186
-65.004
-64.049
-64.0592
-64.0796
-64.1103
-64.1516
-64.2038
-64.2675
-64.3432
-64.4312
-64.5319
-64.6482
-64.7911
-64.9808
-65.2988
-66.239
-63.9334
-63.9437
-63.9644
-63.9956
-64.0374
-64.0902
-64.1545
-64.2308
-64.3189
-64.4184
-64.5309
-64.6633
-64.8171
-64.9462
-64.5457
-63.8096
-63.82
-63.8409
-63.8724
-63.9147
-63.9681
-64.0329
-64.1093
-64.1968
-64.2938
-64.3998
-64.5196
-64.6691
-64.9609
-66.1825
-63.6774
-63.6879
-63.7091
-63.7409
-63.7836
-63.8375
-63.9028
-63.9795
-64.0665
-64.161
-64.2589
-64.3547
-64.4205
-64.3293
-63.2792
-63.5367
-63.5473
-63.5687
-63.6008
-63.644
-63.6983
-63.7643
-63.8417
-63.9292
-64.0236
-64.1196
-64.2099
-64.2793
-64.3631
-65.062
-63.3875
-63.3983
-63.4198
-63.4522
-63.4957
-63.5507
-63.6174
-63.696
-63.7855
-63.8831
-63.9841
-64.0789
-64.1266
-63.9691
-62.843
-63.2298
-63.2406
-63.2623
-63.2949
-63.3388
-63.3943
-63.4618
-63.542
-63.6344
-63.7383
-63.8528
-63.9798
-64.1147
-64.2472
-64.3563
-63.0635
-63.0743
-63.0961
-63.1289
-63.173
-63.2289
-63.2971
-63.3786
-63.4738
-63.5839
-63.7127
-63.8745
-64.1027
-64.541
-65.9587
-62.8885
-62.8994
-62.9212
-62.9542
-62.9984
-63.0544
-63.1228
-63.2048
-63.3013
-63.4143
-63.5498
-63.7223
-63.9433
-64.154
-63.6363
-62.7048
-62.7157
-62.7376
-62.7706
-62.8148
-62.8706
-62.9387
-63.02
-63.1155
-63.2271
-63.3611
-63.5358
-63.7892
-64.2724
-65.8908
-62.5124
-62.5234
-62.5453
-62.5783
-62.6224
-62.6778
-62.7451
-62.8247
-62.9169
-63.0222
-63.1443
-63.2936
-63.4741
-63.6017
-62.7682
-62.3113
-62.3223
-62.3443
-62.3773
-62.4213
-62.4763
-62.5425
-62.6198
-62.7073
-62.8037
-62.9085
-63.0291
-63.1939
-63.5979
-65.5949
-62.1014
-62.1125
-62.1347
-62.1678
-62.2117
-62.2665
-62.3318
-62.407
-62.4901
-62.5771
-62.6617
-62.7331
-62.7461
-62.4874
-60.598
-61.8828
-61.894
-61.9164
-61.9498
-61.994
-62.0488
-62.1137
-62.1878
-62.2684
-62.3501
-62.4241
-62.4769
-62.4852
-62.5087
-63.5261
-61.6553
-61.6667
-61.6894
-61.7233
-61.7681
-61.8235
-61.889
-61.9634
-62.0443
-62.1264
-62.2011
-62.2509
-62.212
-61.8391
-59.932
-61.4187
-61.4304
-61.4537
-61.4883
-61.5341
-61.5907
-61.6576
-61.7338
-61.8176
-61.9058
-61.9955
-62.0857
-62.1693
-62.2345
-62.2688
-61.173
-61.1851
-61.209
-61.2448
-61.2919
-61.3502
-61.4192
-61.4982
-61.5861
-61.6821
-61.7893
-61.9245
-62.1375
-62.6508
-64.6427
-60.9179
-60.9304
-60.9552
-60.9923
-61.0413
-61.1018
-61.1735
-61.2557
-61.3474
-61.4486
-61.5638
-61.7084
-61.8957
-62.0396
-61.0954
-60.6531
-60.6661
-60.692
-60.7306
-60.7818
-60.8452
-60.9201
-61.0057
-61.1004
-61.2033
-61.3179
-61.4619
-61.6823
-62.1833
-64.2232
-60.3782
-60.3917
-60.4188
-60.4594
-60.5132
-60.58
-60.659
-60.7486
-60.8461
-60.9478
-61.0515
-61.1617
-61.2725
-61.2579
-59.8898
-60.0928
-60.107
-60.1354
-60.178
-60.2349
-60.3059
-60.39
-60.4853
-60.5873
-60.6887
-60.7808
-60.8602
-60.948
-61.2719
-63.5099
-59.7966
-59.8113
-59.841
-59.8858
-59.9462
-60.0221
-60.1129
-60.2166
-60.3273
-60.4342
-60.5189
-60.552
-60.4581
-59.956
-57.389
-59.4891
-59.5044
-59.5351
-59.582
-59.6459
-59.7274
-59.8266
-59.9421
-60.0684
-60.193
-60.293
-60.3313
-60.2501
-60.0735
-60.8062
-59.1701
-59.1856
-59.2171
-59.2657
-59.3326
-59.4198
-59.5287
-59.6595
-59.809
-59.9668
-60.1099
-60.1929
-60.1067
-59.559
-57.3693
-58.8393
-58.8547
-58.8863
-58.9356
-59.0047
-59.0967
-59.2151
-59.3632
-59.5424
-59.7487
-59.9688
-60.1711
-60.2824
-60.1843
-59.7994
-58.4967
-58.5116
-58.5424
-58.5909
-58.6602
-58.7548
-58.8806
-59.0447
-59.2552
-59.5191
-59.84
-60.2117
-60.6021
-61.0083
-61.9742
-58.1429
-58.1566
-58.1852
-58.2309
-58.2976
-58.3908
-58.5189
-58.6933
-58.9295
-59.2481
-59.6759
-60.2386
-60.9093
-61.4431
-60.7878
-57.7786
-57.7904
-57.8152
-57.8556
-57.9158
-58.0022
-58.1248
-58.2983
-58.5449
-58.8993
-59.4181
-60.19
-61.3101
-62.7031
-63.2023
-57.4051
-57.4142
-57.4336
-57.4658
-57.515
-57.588
-57.6949
-57.8517
-58.0839
-58.4345
-58.9847
-59.8989
-61.5198
-64.5832
-70.297
-57.0243
-57.0299
-57.0422
-57.0634
-57.0972
-57.1497
-57.23
-57.3522
-57.5391
-57.8294
-58.2987
-59.1165
-60.7264
-64.6225
-77.0491
-77.6024
-65.0971
-61.1376
-59.4981
-58.6685
-58.1949
-57.9038
-57.7173
-57.5956
-57.5157
-57.4635
-57.4298
-57.4088
-57.3965
-57.3909
-71.269
-65.0552
-61.8721
-60.2236
-59.3072
-58.7609
-58.4154
-58.1879
-58.0347
-57.9303
-57.8593
-57.8114
-57.7801
-57.7612
-57.7524
-63.1978
-62.9079
-61.5394
-60.4402
-59.6887
-59.1859
-58.8437
-58.6062
-58.4393
-58.3215
-58.2384
-58.1807
-58.1419
-58.1181
-58.1068
-61.4032
-61.5089
-61.0181
-60.4151
-59.8974
-59.4978
-59.198
-58.9748
-58.8096
-58.688
-58.5993
-58.536
-58.4926
-58.4654
-58.4524
-59.5467
-60.5232
-60.5733
-60.3304
-60.024
-59.7388
-59.4975
-59.3024
-59.1491
-59.0311
-58.9421
-58.8768
-58.8311
-58.8021
-58.788
-60.2187
-60.1799
-60.3305
-60.2894
-60.1358
-59.9476
-59.7635
-59.6002
-59.4636
-59.3536
-59.2678
-59.2032
-59.1571
-59.1275
-59.113
-57.7344
-59.7042
-60.2194
-60.3262
-60.2714
-60.1521
-60.0135
-59.8788
-59.7592
-59.6589
-59.5782
-59.516
-59.4708
-59.4414
-59.427
-60.9983
-60.238
-60.3903
-60.4748
-60.4516
-60.3682
-60.2592
-60.1461
-60.0411
-59.9501
-59.8751
-59.8161
-59.7726
-59.7441
-59.73
-57.6983
-60.137
-60.6069
-60.6978
-60.6734
-60.6006