/*--------------------------------*- C++ -*----------------------------------*\
| =========                 |                                                 |
| \\      /  F ield         | OpenFOAM: The Open Source CFD Toolbox           |
|  \\    /   O peration     | Version:  5.x                                   |
|   \\  /    A nd           | Web:      www.OpenFOAM.org                      |
|    \\/     M anipulation  |                                                 |
\*---------------------------------------------------------------------------*/
FoamFile
{
    version     2.0;
    format      ascii;
    class       volScalarField;
    location    "1.5";
    object      gradTy;
}
// * * * * * * * * * * * * * * * * * * * * * * * * * * * * * * * * * * * * * //

dimensions      [0 -1 0 1 0 0 0];

internalField   nonuniform List<scalar> 
6300
(
32273.7
32221.2
32168.7
32116.3
32064.1
32012.1
31960.3
31908.9
31857.7
31807
31756.7
31706.8
31657.5
31608.7
31560.5
-0.0326039
-0.0979435
-0.163651
-0.229915
-0.296841
-0.364409
-0.432437
-0.500563
-0.568225
-0.634684
-0.699071
-0.760489
-0.818156
-0.871577
-0.920698
-0.0541892
-0.162809
-0.272108
-0.382436
-0.494003
-0.606811
-0.720589
-0.834741
-0.94832
-1.06003
-1.16833
-1.27154
-1.36818
-1.45723
-1.53853
-0.0755439
-0.226997
-0.379518
-0.533689
-0.689888
-0.848199
-1.00831
-1.16943
-1.33021
-1.48873
-1.64258
-1.78909
-1.92572
-2.05059
-2.16316
-0.0965237
-0.290108
-0.485268
-0.682898
-0.883639
-1.08776
-1.29499
-1.50442
-1.71432
-1.92205
-2.12413
-2.31648
-2.49495
-2.65621
-2.79886
-0.116951
-0.351614
-0.588508
-0.828945
-1.07395
-1.32412
-1.57939
-1.83886
-2.10048
-2.3609
-2.61529
-2.85762
-3.08126
-3.28032
-3.45156
-0.136616
-0.41088
-0.688185
-0.970387
-1.25906
-1.55531
-1.85952
-2.17105
-2.48778
-2.80568
-3.11844
-3.41737
-3.69207
-3.93222
-4.1307
-0.155246
-0.467085
-0.782928
-1.10531
-1.43652
-1.77845
-2.13225
-2.49794
-2.87379
-3.25551
-3.63531
-4.00125
-4.33736
-4.62569
-4.85137
-0.17252
-0.519259
-0.871084
-1.23133
-1.6032
-1.98962
-2.39297
-2.81456
-3.25383
-3.70712
-4.16592
-4.61486
-5.03033
-5.38171
-5.63862
-0.188083
-0.566314
-0.950764
-1.34564
-1.75522
-2.18376
-2.63534
-3.11336
-3.61972
-4.15311
-4.70627
-5.26182
-5.78722
-6.23203
-6.53515
-0.201568
-0.607114
-1.01996
-1.44518
-1.88818
-2.35476
-2.85113
-3.38371
-3.95846
-4.5792
-5.24411
-5.93876
-6.62449
-7.22372
-7.61598
-0.21263
-0.640579
-1.07671
-1.52686
-1.99746
-2.49585
-3.0306
-3.61179
-4.25108
-4.961
-5.75204
-6.62437
-7.54788
-8.42191
-9.02004
-0.220989
-0.665824
-1.11938
-1.58799
-2.07884
-2.60047
-3.16352
-3.78164
-4.47295
-5.26153
-6.17846
-7.25845
-8.52026
-9.89536
-11.028
-0.226477
-0.682306
-1.14693
-1.6268
-2.12933
-2.66358
-3.24123
-3.8782
-4.5974
-5.43353
-6.44151
-7.71029
-9.37874
-11.6106
-14.252
-0.229073
-0.689948
-1.15917
-1.64284
-2.14798
-2.68316
-3.2595
-3.89241
-4.60478
-5.43346
-6.44338
-7.76195
-9.67332
-12.9161
-19.7771
31516.9
31477.8
31439
31400.8
31363.1
31325.9
31289.2
31253.1
31217.5
31182.5
31148.2
31114.4
31081.3
31048.8
31017
30985.8
30955.3
30925.4
30896.3
30867.7
30839.8
30812.6
30786
30759.9
30734.5
30709.6
30685.3
30661.5
30638.1
30615.2
30592.8
30570.8
30549.1
30527.8
30506.8
30486.1
30465.6
30445.4
30425.3
30405.5
30385.8
30366.2
30346.7
30327.3
30307.9
30288.5
30269.1
30249.7
30230.2
30210.6
30190.9
30171.1
30151
30130.8
30110.3
30089.5
30068.5
30047.1
30025.4
30003.2
29980.7
29957.8
29934.4
29910.5
29886.1
29861.2
29835.8
29809.8
29783.3
29756.2
29728.5
29700.3
29671.4
29641.9
29611.8
29581.1
29549.7
29517.7
29485.1
29451.9
29418.1
29383.6
29348.6
29312.9
29276.7
29239.9
29202.5
29164.5
29126
29086.9
-0.962233
-0.998012
-1.03259
-1.06679
-1.10134
-1.13673
-1.17305
-1.20999
-1.24682
-1.2825
-1.31585
-1.34565
-1.37086
-1.39065
-1.40449
-1.41206
-1.41322
-1.40794
-1.39625
-1.37821
-1.35396
-1.32372
-1.2878
-1.24665
-1.20082
-1.1509
-1.09753
-1.04133
-0.982914
-0.922851
-0.861686
-0.799912
-0.737948
-0.676127
-0.614685
-0.553765
-0.493442
-0.433748
-0.374698
-0.316302
-0.258556
-0.20142
-0.144793
-0.0884937
-0.0322644
0.0242045
0.0812292
0.139081
0.197936
0.257849
0.318742
0.380415
0.442573
0.504857
0.566861
0.628158
0.688304
0.746868
0.803444
0.857687
0.90933
0.958198
1.00419
1.04726
1.08736
1.12443
1.15839
1.18913
1.21656
1.24062
1.26133
1.27877
1.29306
1.30431
1.31257
1.31786
1.32017
1.3195
1.31588
1.30942
1.30029
1.28864
1.27457
1.25803
1.23878
1.21644
1.19051
1.16048
1.12592
1.08656
-1.60672
-1.66514
-1.72146
-1.77731
-1.83413
-1.89292
-1.95395
-2.01666
-2.07969
-2.14108
-2.19856
-2.24991
-2.29322
-2.3271
-2.35066
-2.3635
-2.36549
-2.35665
-2.33706
-2.3068
-2.26604
-2.21511
-2.15454
-2.08511
-2.00777
-1.92357
-1.83363
-1.739
-1.64071
-1.53975
-1.43703
-1.33341
-1.22961
-1.12621
-1.02358
-0.921934
-0.82135
-0.721844
-0.623421
-0.526111
-0.429941
-0.334888
-0.240808
-0.147396
-0.0541823
0.0394205
0.134023
0.23015
0.328148
0.42812
0.529915
0.633162
0.737326
0.841768
0.945786
1.04864
1.14957
1.24781
1.34265
1.43347
1.51982
1.60142
1.67815
1.74999
1.81691
1.87884
1.93561
1.98698
2.03276
2.07283
2.10722
2.13611
2.15976
2.17838
2.19212
2.20097
2.20483
2.20364
2.19743
2.18642
2.17095
2.15141
2.12805
2.10085
2.06941
2.03298
1.9906
1.94126
1.88411
1.8186
-2.25621
-2.33512
-2.41084
-2.48623
-2.56389
-2.6457
-2.73225
-2.82268
-2.91473
-3.00507
-3.08989
-3.16553
-3.22897
-3.27818
-3.31207
-3.33035
-3.33314
-3.32066
-3.29303
-3.2503
-3.19257
-3.12018
-3.03387
-2.93478
-2.8244
-2.70436
-2.5763
-2.44177
-2.30222
-2.15903
-2.01355
-1.86704
-1.72059
-1.57507
-1.43097
-1.28849
-1.14764
-1.00832
-0.870492
-0.734237
-0.59969
-0.466935
-0.335855
-0.20602
-0.0766775
0.0531685
0.184579
0.318475
0.455456
0.595691
0.738912
0.884492
1.03157
1.17917
1.32625
1.47176
1.61456
1.7535
1.88747
2.01552
2.13696
2.25145
2.35895
2.45958
2.55343
2.64044
2.72033
2.79265
2.85693
2.91295
2.96076
3.00073
3.0334
3.05922
3.07844
3.09096
3.09649
3.09472
3.08562
3.06954
3.04719
3.01939
2.98681
2.94953
2.90695
2.85782
2.80044
2.73302
2.65409
2.56266
-2.91393
-3.00972
-3.10078
-3.19194
-3.28778
-3.39172
-3.50503
-3.62646
-3.75231
-3.87708
-3.99452
-4.09877
-4.18529
-4.25136
-4.29602
-4.31957
-4.32285
-4.30652
-4.2708
-4.21546
-4.14025
-4.04534
-3.93162
-3.80075
-3.65497
-3.49672
-3.32832
-3.15179
-2.96898
-2.78163
-2.59155
-2.40055
-2.21025
-2.02186
-1.83598
-1.65269
-1.47169
-1.2926
-1.11526
-0.939854
-0.766803
-0.596512
-0.429042
-0.263869
-0.0998246
0.0647406
0.231638
0.402446
0.578171
0.759061
0.944615
1.13377
1.32518
1.51742
1.70912
1.89888
2.08522
2.26647
2.44095
2.6072
2.76423
2.91169
3.04978
3.17904
3.29992
3.41244
3.51611
3.60999
3.69314
3.76501
3.82571
3.876
3.917
3.94969
3.97451
3.99114
3.99875
3.99647
3.98397
3.9618
3.93134
3.89438
3.8524
3.8059
3.75403
3.69464
3.62479
3.54144
3.44205
3.32504
-3.58425
-3.69103
-3.79053
-3.89084
-4.00001
-4.12423
-4.26613
-4.4239
-4.59146
-4.75966
-4.91816
-5.05756
-5.17109
-5.25539
-5.31037
-5.338
-5.34079
-5.32035
-5.27684
-5.20925
-5.11633
-4.99762
-4.85408
-4.68822
-4.50353
-4.30373
-4.09203
-3.8709
-3.64229
-3.40819
-3.1709
-2.93308
-2.69719
-2.46504
-2.2373
-2.01363
-1.793
-1.57436
-1.35726
-1.14209
-0.929951
-0.722035
-0.51893
-0.320096
-0.123727
0.0729499
0.273063
0.479335
0.693451
0.91572
1.14514
1.37983
1.6176
1.85647
2.09478
2.33097
2.56321
2.78919
3.00631
3.21218
3.40532
3.58542
3.75336
3.91061
4.05845
4.19723
4.32599
4.44282
4.54563
4.63319
4.70567
4.76468
4.8126
4.85155
4.8824
4.90434
4.91528
4.91298
4.89629
4.86604
4.82491
4.77664
4.72454
4.67006
4.61197
4.54656
4.46864
4.37301
4.25548
4.11351
-4.27453
-4.38287
-4.4792
-4.57708
-4.69071
-4.83148
-5.00461
-5.20751
-5.42999
-5.6565
-5.86959
-6.05391
-6.19925
-6.30197
-6.3644
-6.39251
-6.39247
-6.3677
-6.31785
-6.23979
-6.12983
-5.98591
-5.80897
-5.60305
-5.37409
-5.12811
-4.86957
-4.60098
-4.32374
-4.03951
-3.75122
-3.46297
-3.17893
-2.90199
-2.63289
-2.37029
-2.11153
-1.85401
-1.59655
-1.34003
-1.08705
-0.840646
-0.602667
-0.372752
-0.148038
0.0762616
0.305683
0.545014
0.797094
1.0622
1.33823
1.6216
1.90861
2.19652
2.48371
2.76898
3.05047
3.32495
3.58811
3.8358
4.06546
4.27699
4.47266
4.65605
4.83039
4.99678
5.15344
5.2962
5.42048
5.52348
5.60544
5.66975
5.72153
5.76548
5.80354
5.83381
5.85133
5.85061
5.82859
5.78635
5.72919
5.66484
5.60053
5.53983
5.48089
5.41686
5.33837
5.23646
5.10445
4.93849
-4.99711
-5.092
-5.16568
-5.24068
-5.34242
-5.49227
-5.70043
-5.96316
-6.26298
-6.57296
-6.86276
-7.10672
-7.28912
-7.40689
-7.46817
-7.48789
-7.48011
-7.45149
-7.39983
-7.31661
-7.19256
-7.02207
-6.80595
-6.55136
-6.26946
-5.97089
-5.66187
-5.34381
-5.01549
-4.67695
-4.33174
-3.98703
-3.65067
-3.32783
-3.01933
-2.72159
-2.42843
-2.13373
-1.83462
-1.53296
-1.23478
-0.947198
-0.674843
-0.417946
-0.171764
0.0722023
0.324054
0.592367
0.882034
1.19303
1.52085
1.85827
2.19849
2.53779
2.87558
3.21267
3.54806
3.87724
4.19246
4.48565
4.75202
4.99172
5.20997
5.41487
5.6141
5.81072
6.00126
6.17657
6.32639
6.44446
6.53106
6.59328
6.64217
6.68835
6.73635
6.7821
6.8141
6.8194
6.79049
6.72865
6.64432
6.55346
6.4718
6.40753
6.35762
6.30846
6.24225
6.14371
6.0027
5.81418
-5.77375
-5.83157
-5.85012
-5.86558
-5.92461
-6.06879
-6.31739
-6.66518
-7.08117
-7.51834
-7.92179
-8.24805
-8.4719
-8.59303
-8.63168
-8.62274
-8.59766
-8.56834
-8.52716
-8.45213
-8.32211
-8.12384
-7.85826
-7.53892
-7.18878
-6.82867
-6.46712
-6.10136
-5.72193
-5.32392
-4.9115
-4.499
-4.10292
-3.733
-3.39024
-3.06624
-2.74753
-2.41979
-2.07634
-1.72087
-1.36726
-1.03183
-0.724762
-0.447714
-0.192301
0.0567768
0.3187
0.608931
0.936216
1.29955
1.68958
2.09084
2.48965
2.88116
3.26843
3.65874
4.05452
4.4496
4.82845
5.17406
5.4769
5.73727
5.96644
6.18178
6.40148
6.63332
6.87088
7.09351
7.2779
7.41064
7.49166
7.53588
7.5666
7.60844
7.67224
7.75006
7.81515
7.8373
7.79966
7.70317
7.56873
7.4287
7.31791
7.25446
7.23312
7.22451
7.19255
7.11202
6.96922
6.76019
-6.64369
-6.62731
-6.53857
-6.42714
-6.3834
-6.494
-6.79046
-7.26785
-7.86775
-8.51113
-9.09089
-9.53571
-9.8015
-9.89682
-9.8626
-9.77972
-9.72021
-9.7012
-9.70215
-9.66577
-9.54891
-9.32151
-8.98703
-8.56988
-8.12152
-7.68762
-7.27759
-6.87773
-6.45429
-5.99087
-5.49061
-4.98662
-4.51685
-4.09842
-3.73354
-3.40272
-3.07912
-2.72798
-2.33499
-1.90574
-1.47328
-1.07536
-0.731287
-0.446203
-0.203637
0.022878
0.272545
0.572029
0.938307
1.36739
1.84184
2.32654
2.79089
3.23015
3.65639
4.09639
4.56138
5.04469
5.51159
5.92326
6.2621
6.52686
6.74189
6.94143
7.17036
7.44661
7.76085
8.06435
8.30252
8.44999
8.50393
8.49657
8.47364
8.4955
8.58652
8.73491
8.87655
8.93979
8.89207
8.73084
8.49971
8.26033
8.09436
8.03928
8.08885
8.17279
8.21139
8.16865
8.02977
7.80433
-7.6787
-7.52651
-7.25895
-6.89045
-6.61911
-6.65054
-7.00177
-7.69272
-8.59022
-9.59399
-10.4528
-11.0796
-11.375
-11.3856
-11.162
-10.9015
-10.7829
-10.8037
-10.9293
-10.9938
-10.9334
-10.6719
-10.2334
-9.64439
-9.03205
-8.51088
-8.07213
-7.68681
-7.24304
-6.70969
-6.07397
-5.42387
-4.85581
-4.38579
-4.02693
-3.72796
-3.44961
-3.09576
-2.64519
-2.09463
-1.52903
-1.04094
-0.652532
-0.38324
-0.191709
-0.0442936
0.154644
0.438848
0.849797
1.36963
1.97901
2.59109
3.12773
3.59728
4.0238
4.49726
5.04105
5.66249
6.27332
6.77633
7.15283
7.38683
7.53835
7.65739
7.86966
8.20369
8.66473
9.12763
9.45606
9.62221
9.60261
9.47776
9.31424
9.28097
9.41617
9.72741
10.0487
10.2
10.1458
9.85704
9.44041
8.98412
8.70902
8.67131
8.89298
9.18429
9.34534
9.36176
9.21313
8.98758
-9.0142
-8.59095
-8.12401
-7.21344
-6.41882
-6.34694
-6.72441
-7.82073
-9.16023
-10.8862
-12.1491
-13.1015
-13.3591
-13.2122
-12.5152
-11.8195
-11.6454
-11.7561
-12.2453
-12.5023
-12.6081
-12.2779
-11.697
-10.7532
-9.81192
-9.21605
-8.79033
-8.58068
-8.16138
-7.57651
-6.67855
-5.7435
-5.05405
-4.51352
-4.23451
-4.02395
-3.92925
-3.60322
-3.09975
-2.30548
-1.47341
-0.863155
-0.402402
-0.208472
-0.116435
-0.185835
-0.0861908
0.123047
0.604463
1.24297
2.1124
2.96447
3.5614
4.02663
4.32387
4.79711
5.40922
6.29594
7.19074
7.81203
8.2493
8.36607
8.38207
8.23962
8.39415
8.77846
9.56653
10.3852
10.844
11.0627
10.8536
10.5154
9.96804
9.82463
9.9931
10.7062
11.4668
11.7568
11.7382
11.1683
10.4392
9.44794
8.98278
8.93078
9.59779
10.3843
10.6885
10.7935
10.5083
10.3774
-10.9512
-9.718
-9.62781
-7.36914
-5.17732
-5.39577
-5.41152
-7.59825
-9.17337
-12.845
-14.2925
-16.1233
-15.9254
-15.8307
-13.8664
-11.9862
-12.0974
-12.1632
-13.8955
-14.2285
-14.9103
-14.2449
-13.6831
-11.8582
-10.0943
-9.67608
-9.19723
-9.77631
-9.31798
-8.89407
-7.33643
-5.70934
-5.03772
-4.26457
-4.3434
-4.15302
-4.74192
-4.36613
-3.97297
-2.57074
-1.09835
-0.470057
0.231986
0.11306
0.191311
-0.570819
-0.484902
-0.584761
0.132811
0.78367
2.27068
3.70514
4.18464
4.69779
4.37041
4.89691
5.38185
6.91762
8.50191
9.11255
9.80714
9.49027
9.45378
8.39402
8.58754
8.77159
10.424
12.1609
12.5774
13.1188
12.2903
11.8539
10.0399
9.91887
9.78546
11.6162
13.5623
13.7574
14.1243
12.7085
11.8151
9.15393
8.66129
8.15463
10.1303
12.2786
12.3182
12.7872
11.5809
12.1378
-14.5636
-9.19908
-14.2537
-7.42813
-0.464359
-4.73558
-0.971382
-8.25541
-6.16638
-18.0054
-15.8828
-22.0654
-18.3419
-21.1403
-15.0952
-9.28406
-12.6138
-10.1691
-17.5594
-15.4515
-19.1514
-16.0614
-17.4871
-12.8742
-8.4377
-10.2225
-8.07975
-12.4649
-10.4241
-11.8433
-8.09348
-4.29844
-5.16677
-2.78803
-4.83921
-3.15925
-6.94313
-5.15353
-6.29876
-2.93659
0.492672
-0.18276
2.04888
0.150958
1.70938
-2.17686
-0.616116
-2.46971
-0.242945
-0.879874
2.50436
5.82071
4.75911
6.5789
3.18695
5.05603
3.84073
7.46882
11.2145
10.2915
12.8207
10.21
11.9981
6.74276
8.79348
6.64926
11.1584
15.8366
14.1299
17.1463
13.1609
15.1746
7.67239
10.0294
6.74794
12.3584
18.1776
15.5092
19.0759
13.4951
15.7347
5.73573
8.3584
3.80243
10.4125
17.2078
13.3284
17.1915
10.1133
15.1748
-26.3077
6.32395
-35.9864
-7.68542
20.4273
-15.6462
19.3784
-22.4096
16.8972
-43.2706
-5.51323
-42.272
-11.3669
-39.1844
-15.9869
6.58106
-21.445
5.9873
-34.9008
-8.31099
-33.1701
-11.3754
-29.9869
-13.636
2.17755
-16.4244
2.4379
-24.4067
-6.54803
-22.236
-8.91564
3.82785
-9.97151
5.06778
-10.7078
5.70253
-17.1703
-1.71486
-15.1154
-3.39905
7.99461
-4.08155
9.81255
-4.78825
11.0679
-11.6267
4.16918
-10.2307
3.50486
-8.33413
2.83577
14.2407
1.18439
15.965
-5.57256
9.65656
-4.67506
7.85067
20.65
6.49953
23.2359
4.59517
24.6851
-5.42945
15.04
-5.05422
11.6495
28.7065
8.88118
31.2563
5.39255
32.1984
-8.89273
18.2593
-9.09429
12.7999
35.015
8.28201
37.1996
3.02004
37.2777
-15.8577
18.3927
-16.6289
10.428
37.5086
3.18904
37.3513
-8.83533
26.1913
29043.4
28995.2
28946.4
28897
28846.9
28796.4
28745.4
28693.9
28642.1
28590
28537.6
28485
28432.3
28379.4
28326.5
1.03794
0.978188
0.912507
0.842023
0.768059
0.691964
0.614963
0.538061
0.462002
0.387254
0.314037
0.242354
0.172033
0.102773
0.034182
1.73723
1.63678
1.52606
1.40713
1.28239
1.15422
1.02478
0.895801
0.768521
0.643706
0.52168
0.402401
0.285535
0.170537
0.0567127
2.44808
2.30553
2.14772
1.97797
1.80004
1.61766
1.43405
1.25174
1.0725
0.897307
0.726531
0.560003
0.397151
0.237115
0.0788391
3.17645
2.9895
2.78129
2.55692
2.32209
2.08223
1.84192
1.60454
1.37233
1.14642
0.92708
0.713889
0.505926
0.301916
0.100362
3.92968
3.69474
3.43101
3.14632
2.84913
2.5472
2.24674
1.95207
1.66574
1.38887
1.1214
0.862493
0.610709
0.364241
0.121046
4.71748
4.42894
4.10183
3.74831
3.38099
3.01076
2.64575
2.29116
1.9496
1.62179
1.30707
1.0039
0.710127
0.423265
0.140617
5.55294
5.20192
4.79922
4.36425
3.91593
3.46926
3.03446
2.61721
2.21964
1.84151
1.4811
1.13582
0.802574
0.478039
0.158762
6.45428
6.02644
5.52878
4.99348
4.44922
3.91606
3.40581
2.92366
2.47021
2.04343
1.63991
1.25561
0.886245
0.527514
0.175135
7.44871
6.91986
6.29523
5.63107
4.97089
4.33981
3.74921
3.20152
2.69414
2.22205
1.77943
1.36037
0.959217
0.570594
0.189382
8.58263
7.90785
7.10022
6.2638
5.46236
4.72242
4.0495
3.43912
2.8828
2.37118
1.8953
1.44715
1.01959
0.606223
0.201163
9.9504
9.02928
7.9344
6.86207
5.89185
5.03734
4.28689
3.62253
3.02675
2.4845
1.98339
1.51327
1.06572
0.633503
0.210195
11.7735
10.3244
8.74558
7.35885
6.20575
5.24791
4.43796
3.73724
3.11708
2.55661
2.04039
1.55675
1.09644
0.651833
0.216291
14.6467
11.7482
9.36349
7.62144
6.324
5.31029
4.47965
3.77131
3.14767
2.58436
2.06474
1.5768
1.11138
0.661052
0.219406
19.8425
12.6577
9.33886
7.43916
6.15795
5.1892
4.39886
3.72062
3.11786
2.56833
2.05728
1.57423
1.11117
0.661536
0.219667
-0.229132
-0.689864
-1.15812
-1.63933
-2.13961
-2.66625
-3.22839
-3.83822
-4.51318
-5.28023
-6.18528
-7.3155
-8.85839
-11.2731
-15.8131
-0.227274
-0.68396
-1.14714
-1.62138
-2.11163
-2.62344
-3.16322
-3.73851
-4.35828
-5.03292
-5.77253
-6.57703
-7.38854
-7.87004
-6.3682
-0.223917
-0.673512
-1.12842
-1.59223
-2.06859
-2.56114
-3.07333
-3.60783
-4.16514
-4.74027
-5.31446
-5.83353
-6.14781
-5.84344
-3.81229
-0.219321
-0.659338
-1.10345
-1.55428
-2.01421
-2.48513
-2.9679
-3.46122
-3.95945
-4.44799
-4.89442
-5.23231
-5.33642
-5.0157
-4.22761
-0.213758
-0.642281
-1.07376
-1.50994
-1.95213
-2.40083
-2.85507
-3.31115
-3.76033
-4.18458
-4.54945
-4.79362
-4.81939
-4.51244
-3.96163
-0.207484
-0.623134
-1.04075
-1.46135
-1.88543
-2.3126
-2.74092
-3.16584
-3.57838
-3.96205
-4.28792
-4.50684
-4.53288
-4.17838
-2.80976
-0.200724
-0.602585
-1.0056
-1.41025
-1.8165
-2.2235
-2.62908
-3.0291
-3.41639
-3.77935
-4.10024
-4.35408
-4.51024
-4.54834
-4.60974
-0.193664
-0.581195
-0.969263
-1.35796
-1.74696
-2.13527
-2.52103
-2.90117
-3.27125
-3.62564
-3.95875
-4.26909
-4.5693
-4.90191
-5.33027
-0.186451
-0.559399
-0.932428
-1.30538
-1.67778
-2.04873
-2.4168
-2.78016
-3.13696
-3.48657
-3.83277
-4.19101
-4.6056
-5.18872
-6.22691
-0.179194
-0.537516
-0.895592
-1.25311
-1.60953
-1.96407
-2.31575
-2.66363
-3.00758
-3.34976
-3.69817
-4.07362
-4.52463
-5.15925
-6.23634
-0.171973
-0.515772
-0.859098
-1.20153
-1.5425
-1.88131
-2.21722
-2.54976
-2.87932
-3.20851
-3.54458
-3.90361
-4.31591
-4.82227
-5.39868
-0.164845
-0.494331
-0.823181
-1.1509
-1.47688
-1.80046
-2.12095
-2.43785
-2.75122
-3.06235
-3.37486
-3.69645
-4.04165
-4.4364
-4.9426
-0.15785
-0.473305
-0.78801
-1.10141
-1.41286
-1.72167
-2.02707
-2.32828
-2.62456
-2.91509
-3.19865
-3.47275
-3.73277
-3.97292
-4.18593
-0.151016
-0.452775
-0.753706
-1.05321
-1.35062
-1.64518
-1.93601
-2.22205
-2.50178
-2.77253
-3.02882
-3.25871
-3.43747
-3.5281
-3.5894
-0.144361
-0.432796
-0.720354
-1.00641
-1.29028
-1.57119
-1.8482
-2.12013
-2.38513
-2.63986
-2.87717
-3.08005
-3.20317
-3.10349
-2.21916
-0.1379
-0.413402
-0.688007
-0.961082
-1.23194
-1.49983
-1.76385
-2.02292
-2.27552
-2.51916
-2.74926
-2.95667
-3.12342
-3.22363
-3.31686
-0.131636
-0.39461
-0.656687
-0.917242
-1.17561
-1.43108
-1.68287
-1.93015
-2.17203
-2.40773
-2.63694
-2.86144
-3.08969
-3.34847
-3.6971
-0.125571
-0.376421
-0.626391
-0.874873
-1.12123
-1.36481
-1.60495
-1.84104
-2.07277
-2.30068
-2.52775
-2.76349
-3.03462
-3.41075
-4.06531
-0.119702
-0.358824
-0.597095
-0.833932
-1.06873
-1.30088
-1.52977
-1.75489
-1.97608
-2.19412
-2.41238
-2.64085
-2.9065
-3.27951
-3.95052
-0.114023
-0.341799
-0.568764
-0.794364
-1.01802
-1.23915
-1.45714
-1.67141
-1.8815
-2.08732
-2.2898
-2.4923
-2.70367
-2.9412
-3.20471
-0.108524
-0.32532
-0.541353
-0.756102
-0.969025
-1.17955
-1.38703
-1.59076
-1.7898
-1.98275
-2.16708
-2.33749
-2.48255
-2.58473
-2.69249
-0.103196
-0.309354
-0.514806
-0.719071
-0.921648
-1.12199
-1.31948
-1.51332
-1.70226
-1.88408
-2.05393
-2.2002
-2.29109
-2.22427
-1.59434
-0.098025
-0.293862
-0.489058
-0.683179
-0.875777
-1.06637
-1.25442
-1.43921
-1.61962
-1.79362
-1.95707
-2.10129
-2.20903
-2.25476
-2.27304
-0.0929971
-0.2788
-0.464032
-0.648311
-0.831256
-1.01248
-1.19158
-1.36808
-1.54136
-1.7104
-1.87346
-2.02767
-2.16993
-2.30423
-2.47149
-0.0880971
-0.264123
-0.439645
-0.614338
-0.787891
-0.96002
-1.13049
-1.29915
-1.46598
-1.63126
-1.7959
-1.96227
-2.13626
-2.33072
-2.56877
-0.0833099
-0.249781
-0.415813
-0.581128
-0.745478
-0.908671
-1.07062
-1.23144
-1.39163
-1.55251
-1.71704
-1.89152
-2.08828
-2.32686
-2.61663
-0.0786214
-0.235734
-0.392459
-0.548561
-0.703836
-0.858149
-1.0115
-1.16412
-1.31676
-1.47116
-1.6312
-1.80523
-2.01118
-2.28736
-2.71745
-0.0740198
-0.221943
-0.369521
-0.516543
-0.662829
-0.808262
-0.952835
-1.09675
-1.24061
-1.38584
-1.53557
-1.69671
-1.88524
-2.1409
-2.57939
-0.0694957
-0.208381
-0.346952
-0.485012
-0.622387
-0.75894
-0.894596
-1.02938
-1.16348
-1.29735
-1.43194
-1.56913
-1.71261
-1.86739
-2.01658
-0.0650419
-0.195028
-0.324721
-0.453935
-0.582488
-0.71021
-0.83693
-0.96245
-1.08646
-1.2083
-1.32643
-1.43715
-1.53207
-1.59769
-1.65929
-0.0606532
-0.181868
-0.30281
-0.423296
-0.543142
-0.662147
-0.780068
-0.89654
-1.0109
-1.12178
-1.22603
-1.31608
-1.37184
-1.33072
-0.950494
-0.056325
-0.16889
-0.281201
-0.393083
-0.504356
-0.614812
-0.724184
-0.832066
-0.937741
-1.03981
-1.13543
-1.21881
-1.27881
-1.2992
-1.29775
-0.052053
-0.156081
-0.259876
-0.363277
-0.466117
-0.568205
-0.669308
-0.769097
-0.867051
-0.962286
-1.05329
-1.13774
-1.21325
-1.2828
-1.37718
-0.0478324
-0.143427
-0.238812
-0.333844
-0.428378
-0.52226
-0.615322
-0.707378
-0.798221
-0.887658
-0.97566
-1.06285
-1.15178
-1.24912
-1.36566
-0.0436582
-0.130913
-0.217982
-0.304743
-0.391074
-0.476863
-0.562013
-0.646479
-0.730343
-0.813994
-0.898549
-0.986729
-1.08442
-1.20208
-1.35018
-0.0395249
-0.118521
-0.197356
-0.275925
-0.35413
-0.431889
-0.509157
-0.585977
-0.662589
-0.739674
-0.818884
-0.903972
-1.00317
-1.13385
-1.33113
-0.035427
-0.106235
-0.176905
-0.247347
-0.31748
-0.387239
-0.456593
-0.525599
-0.594484
-0.663852
-0.735104
-0.811393
-0.900003
-1.01936
-1.22649
-0.0313595
-0.0940394
-0.156602
-0.218972
-0.281076
-0.342851
-0.404254
-0.465284
-0.526023
-0.586697
-0.647795
-0.710234
-0.775461
-0.84387
-0.89774
-0.0273175
-0.0819203
-0.136426
-0.190771
-0.244886
-0.298705
-0.352156
-0.405155
-0.457586
-0.509223
-0.559527
-0.607119
-0.648681
-0.678453
-0.706137
-0.0232962
-0.0698637
-0.116355
-0.162717
-0.20889
-0.254801
-0.300355
-0.345403
-0.389682
-0.432652
-0.473116
-0.508173
-0.530061
-0.514465
-0.367381
-0.0192908
-0.0578553
-0.0963671
-0.134786
-0.173063
-0.211132
-0.248891
-0.286171
-0.322668
-0.357801
-0.390435
-0.418355
-0.437446
-0.441768
-0.43672
-0.015296
-0.0458795
-0.0764365
-0.106944
-0.13737
-0.167665
-0.197745
-0.227468
-0.256585
-0.284664
-0.311004
-0.334652
-0.355063
-0.37556
-0.418103
-0.0113057
-0.0339183
-0.0565338
-0.0791501
-0.101758
-0.124335
-0.146834
-0.169173
-0.191208
-0.212715
-0.23342
-0.25318
-0.272598
-0.294023
-0.318716
-0.00731324
-0.0219515
-0.0366246
-0.0513538
-0.066157
-0.081046
-0.0960231
-0.111077
-0.126182
-0.141306
-0.156469
-0.171929
-0.188717
-0.210194
-0.248843
-0.00331147
-0.00995705
-0.0166708
-0.0234985
-0.030487
-0.0376851
-0.0451463
-0.0529338
-0.0611298
-0.0698535
-0.0792918
-0.0897388
-0.101559
-0.114419
-0.121127
0.000707134
0.00208794
0.00336752
0.00447579
0.00533772
0.00586896
0.00596838
0.00550556
0.00430245
0.00211152
-0.00139503
-0.00657701
-0.013659
-0.0228941
-0.0409445
0.00475003
0.0142063
0.0235299
0.0326281
0.0414007
0.0497329
0.0574844
0.0644707
0.0704341
0.0750063
0.0776841
0.0779206
0.0757574
0.0747738
0.0951915
0.00882436
0.0264197
0.0438535
0.0610133
0.0777777
0.0940095
0.109542
0.124157
0.137545
0.149233
0.158477
0.164101
0.164375
0.1576
0.147571
0.0129367
0.0387481
0.0643721
0.0896793
0.114533
0.138781
0.162247
0.184708
0.205848
0.225172
0.241802
0.25401
0.257908
0.242705
0.167798
0.0170931
0.0512094
0.0851151
0.118667
0.151715
0.184103
0.215659
0.246185
0.275425
0.302998
0.328216
0.349703
0.364728
0.369288
0.36907
0.0212988
0.0638194
0.106108
0.148009
0.189364
0.230012
0.269796
0.308564
0.346172
0.382473
0.417238
0.4499
0.478835
0.499206
0.492889
0.0255588
0.0765928
0.127375
0.177737
0.227509
0.276528
0.324646
0.371756
0.417838
0.463031
0.507738
0.552699
0.598912
0.647677
0.706995
0.0298778
0.0895432
0.148938
0.207879
0.266185
0.323678
0.380205
0.435672
0.490131
0.543941
0.598081
0.654645
0.717238
0.788844
0.851152
0.0342599
0.102684
0.170819
0.238468
0.30543
0.371505
0.436506
0.500297
0.562884
0.624635
0.686759
0.752422
0.829325
0.936491
1.12766
0.0387094
0.116027
0.19304
0.269538
0.345298
0.420086
0.493655
0.565764
0.636229
0.705082
0.772996
0.842409
0.920418
1.02583
1.20321
0.0432296
0.129584
0.215623
0.301123
0.385845
0.469518
0.551825
0.632381
0.710702
0.786194
0.858208
0.926441
0.992506
1.0652
1.17316
0.0478228
0.143363
0.238582
0.333254
0.427125
0.519903
0.611216
0.700555
0.78715
0.869734
0.946063
1.01199
1.06001
1.0801
1.0915
0.0524898
0.157365
0.261924
0.365942
0.469169
0.57131
0.671983
0.770639
0.86639
0.957628
1.04116
1.10999
1.14693
1.10107
0.777734
0.0572295
0.171588
0.285644
0.399182
0.511971
0.62374
0.734155
0.842746
0.948769
1.05089
1.14647
1.23014
1.29136
1.31475
1.31963
0.0620391
0.186023
0.309724
0.432945
0.555482
0.677114
0.797595
0.916638
1.03386
1.14869
1.26007
1.3659
1.46208
1.54128
1.58542
0.0669141
0.200656
0.334137
0.467184
0.599623
0.731287
0.862036
0.991793
1.12063
1.2489
1.37753
1.50836
1.64461
1.79219
1.97149
0.0718492
0.215469
0.358853
0.501847
0.644303
0.786096
0.927165
1.06759
1.20778
1.34888
1.49349
1.64705
1.81929
2.02108
2.22473
0.0768387
0.230445
0.383839
0.536882
0.689441
0.841409
0.992739
1.14354
1.29431
1.44641
1.60323
1.77278
1.97345
2.24871
2.71374
0.0818773
0.245568
0.409068
0.57225
0.734987
0.897161
1.05868
1.21952
1.37991
1.54065
1.70415
1.87689
2.07581
2.34457
2.79317
0.0869596
0.260823
0.434517
0.607925
0.780922
0.953365
1.12508
1.29581
1.46525
1.63298
1.79866
1.96283
2.12969
2.31555
2.56193
0.0920803
0.276193
0.46016
0.64388
0.827236
1.01007
1.19214
1.373
1.55178
1.72672
1.89422
2.04689
2.17037
2.2445
2.30945
0.0972335
0.291661
0.485971
0.680083
0.873904
1.0673
1.26004
1.45162
1.64096
1.82562
2.00007
2.15122
2.24531
2.17984
1.55904
0.102413
0.307208
0.511915
0.71648
0.920856
1.12498
1.32873
1.53179
1.73338
1.9316
2.1221
2.29514
2.43106
2.50081
2.54284
0.107612
0.322813
0.53795
0.753001
0.967972
1.18291
1.39788
1.61296
1.82811
2.04294
2.25622
2.46484
2.66274
2.84103
2.98508
0.112826
0.338458
0.564038
0.789565
1.0151
1.24079
1.46694
1.69406
1.92303
2.15535
2.39355
2.64197
2.908
3.20501
3.57078
0.118053
0.354134
0.590152
0.826112
1.0621
1.29834
1.5353
1.77385
2.01561
2.26365
2.52375
2.80684
3.13174
3.52121
3.94107
0.123296
0.369848
0.616296
0.862624
1.10891
1.35538
1.60254
1.85139
2.10381
2.36352
2.63797
2.94263
3.3106
3.81625
4.64782
0.128563
0.385626
0.642512
0.899151
1.15556
1.41191
1.66858
1.9264
2.18692
2.45313
2.73117
3.03441
3.3938
3.88494
4.70093
0.133872
0.401519
0.668884
0.935818
1.20224
1.46818
1.7338
1.99952
2.26602
2.53447
2.80683
3.08716
3.38545
3.72797
4.16333
0.139246
0.417599
0.695539
0.972819
1.24923
1.52463
1.79892
2.07205
2.34374
2.61304
2.87691
3.12738
3.34632
3.50647
3.67532
0.144714
0.433954
0.722636
1.0104
1.2969
1.58181
1.86482
2.14552
2.42308
2.69531
2.95623
3.18945
3.34795
3.27888
2.374
0.150307
0.450685
0.750353
1.04883
1.34563
1.64027
1.93228
2.22114
2.50607
2.78538
3.05473
3.30335
3.50753
3.63165
3.74146
0.156059
0.467896
0.778876
1.0884
1.39583
1.70052
2.00188
2.29943
2.59291
2.88229
3.16753
3.44803
3.72262
3.99428
4.28352
0.162002
0.485687
0.808388
1.12938
1.44788
1.76304
2.07407
2.38048
2.68253
2.98201
3.28353
3.59673
3.93964
4.3446
4.87761
0.168163
0.504145
0.839058
1.17207
1.50221
1.82837
2.1494
2.4645
2.77388
3.08021
3.39133
3.72471
4.11345
4.60586
5.2072
0.174557
0.523329
0.871018
1.21672
1.55926
1.89719
2.2288
2.55243
2.86725
3.175
3.48356
3.81413
4.21514
4.79135
5.77744
0.181182
0.543245
0.904327
1.26351
1.61947
1.97035
2.31367
2.6464
2.96546
3.26912
3.5604
3.85451
4.19504
4.69203
5.63312
0.188009
0.563823
0.938922
1.31248
1.68314
2.04869
2.40582
2.74978
3.07426
3.37172
3.63515
3.86252
4.06614
4.28415
4.54252
0.194971
0.584875
0.974547
1.36343
1.75028
2.13281
2.50704
2.86662
3.20171
3.49784
3.73481
3.88691
3.9271
3.84807
3.7941
0.201951
0.606062
1.01068
1.41572
1.82037
2.2226
2.61836
3.00037
3.35613
3.66492
3.89328
3.98888
3.87068
3.39444
2.13151
0.208778
0.626872
1.04648
1.46822
1.89207
2.3168
2.73914
3.15225
3.54308
3.88774
4.14381
4.23919
4.0627
3.48695
2.5522
0.215221
0.646604
1.08074
1.5192
1.96308
2.41259
2.86625
3.31953
3.762
4.17196
4.50578
4.67816
4.5318
3.8286
2.49809
0.221001
0.664395
1.11195
1.56634
2.03011
2.5054
2.99355
3.49423
4.00341
4.50892
4.97968
5.3383
5.38734
4.60566
1.61914
0.225804
0.679269
1.13835
1.60691
2.08906
2.58918
3.11207
3.66295
4.24729
4.86989
5.53125
6.21323
6.81948
6.91369
4.51623
0.229307
0.690212
1.1581
1.63797
2.13543
2.65706
3.21107
3.80837
4.46455
5.20387
6.06832
7.14039
8.60674
10.9522
15.6222
15.1803
10.4539
8.15839
6.75601
5.74174
4.92668
4.22957
3.61007
3.04535
2.5209
2.02661
1.55485
1.0995
0.655357
0.217739
3.70759
6.30108
6.33457
5.81893
5.20396
4.59475
4.0148
3.46686
2.94811
2.45435
1.9812
1.52446
1.08019
0.644662
0.214316
0.636214
3.92583
4.89185
4.95061
4.66196
4.24232
3.77769
3.30328
2.83344
2.3734
1.92431
1.48535
1.05475
0.630337
0.209691
1.2172
3.16404
4.07895
4.32334
4.21072
3.92096
3.54725
3.13645
2.71186
2.28478
1.86032
1.44035
1.02497
0.613363
0.204177
2.13667
3.11869
3.73146
3.9438
3.88229
3.65776
3.34246
2.97912
2.59194
2.19426
1.79314
1.39209
0.992531
0.594677
0.198075
2.67912
3.32957
3.66182
3.75426
3.66688
3.45743
3.17092
2.83825
2.47924
2.10603
1.72584
1.34274
0.958856
0.575091
0.191648
3.82818
3.76119
3.75851
3.68943
3.53607
3.31049
3.03133
2.7156
2.3763
2.02257
1.66049
1.29388
0.92505
0.555253
0.18511
4.42039
4.14792
3.90112
3.68298
3.45526
3.20059
2.91704
2.60922
2.2833
1.94484
1.5982
1.24651
0.891871
0.535628
0.178617
5.42094
4.51659
4.02362
3.68303
3.393
3.11063
2.8195
2.51533
2.19892
1.87271
1.53936
1.20113
0.859765
0.516511
0.172272
5.54362
4.59935
4.04014
3.64782
3.32529
3.02661
2.7309
2.42987
2.12126
1.80547
1.48385
1.15789
0.828929
0.498055
0.16613
4.98658
4.41452
3.94061
3.56399
3.24087
2.94041
2.64591
2.34958
2.04851
1.74221
1.43128
1.11668
0.799388
0.480308
0.160212
4.66797
4.16134
3.77335
3.44289
3.14058
2.84997
2.56211
2.27251
1.97931
1.68211
1.38122
1.07729
0.771059
0.463246
0.154516
4.09988
3.82561
3.566
3.30213
3.03204
2.75752
2.47942
2.19787
1.91284
1.6245
1.33321
1.03945
0.743798
0.446805
0.149022
3.58198
3.47956
3.3615
3.16556
2.92648
2.66745
2.39906
2.12557
1.84861
1.5689
1.28686
1.0029
0.717438