/*--------------------------------*- C++ -*----------------------------------*\
| =========                 |                                                 |
| \\      /  F ield         | OpenFOAM: The Open Source CFD Toolbox           |
|  \\    /   O peration     | Version:  5.x                                   |
|   \\  /    A nd           | Web:      www.OpenFOAM.org                      |
|    \\/     M anipulation  |                                                 |
\*---------------------------------------------------------------------------*/
FoamFile
{
    version     2.0;
    format      ascii;
    class       volScalarField;
    location    "1.5";
    object      T;
}
// * * * * * * * * * * * * * * * * * * * * * * * * * * * * * * * * * * * * * //

dimensions      [0 0 0 1 0 0 0];

internalField   nonuniform List<scalar> 
6300
(
322.737
322.212
321.688
321.164
320.642
320.122
319.605
319.09
318.579
318.072
317.569
317.071
316.578
316.09
315.608
322.737
322.211
321.686
321.163
320.64
320.12
319.602
319.087
318.576
318.068
317.564
317.066
316.572
316.084
315.602
322.737
322.21
321.684
321.159
320.636
320.115
319.596
319.08
318.568
318.059
317.555
317.056
316.561
316.073
315.59
322.736
322.208
321.681
321.155
320.63
320.108
319.588
319.07
318.557
318.047
317.541
317.04
316.545
316.055
315.572
322.735
322.206
321.677
321.149
320.622
320.098
319.576
319.057
318.541
318.03
317.522
317.02
316.523
316.032
315.547
322.734
322.202
321.671
321.141
320.613
320.086
319.562
319.04
318.522
318.008
317.499
316.994
316.495
316.002
315.516
322.733
322.199
321.665
321.132
320.601
320.072
319.545
319.02
318.499
317.982
317.47
316.963
316.461
315.966
315.478
322.731
322.194
321.658
321.122
320.587
320.055
319.525
318.997
318.473
317.952
317.436
316.926
316.421
315.923
315.433
322.73
322.189
321.649
321.11
320.572
320.036
319.502
318.97
318.442
317.917
317.397
316.883
316.375
315.874
315.381
322.728
322.184
321.64
321.097
320.555
320.015
319.477
318.941
318.407
317.878
317.353
316.833
316.321
315.816
315.32
322.726
322.178
321.63
321.083
320.537
319.992
319.449
318.908
318.37
317.834
317.303
316.777
316.259
315.749
315.25
322.724
322.172
321.62
321.068
320.518
319.968
319.42
318.873
318.328
317.786
317.248
316.715
316.188
315.671
315.168
322.722
322.165
321.609
321.053
320.497
319.942
319.389
318.836
318.284
317.735
317.188
316.645
316.108
315.581
315.07
322.719
322.158
321.597
321.037
320.476
319.916
319.356
318.797
318.239
317.681
317.124
316.569
316.018
315.473
314.947
322.717
322.151
321.586
321.02
320.455
319.889
319.324
318.758
318.193
317.626
317.059
316.491
315.92
315.348
314.785
315.173
314.781
314.394
314.012
313.634
313.262
312.896
312.535
312.179
311.83
311.486
311.148
310.817
310.493
310.174
309.863
309.558
309.259
308.967
308.682
308.403
308.13
307.864
307.604
307.349
307.1
306.857
306.618
306.385
306.156
305.931
305.71
305.493
305.28
305.07
304.862
304.658
304.455
304.255
304.056
303.859
303.663
303.468
303.273
303.079
302.885
302.691
302.497
302.302
302.106
301.908
301.709
301.509
301.306
301.101
300.893
300.682
300.468
300.251
300.03
299.804
299.574
299.34
299.101
298.858
298.609
298.354
298.095
297.829
297.558
297.281
296.998
296.709
296.415
296.113
295.806
295.493
295.173
294.847
294.515
294.177
293.832
293.482
293.125
292.763
292.395
292.021
291.641
291.256
290.866
315.166
314.774
314.387
314.005
313.627
313.255
312.888
312.527
312.171
311.821
311.477
311.14
310.808
310.483
310.165
309.853
309.548
309.25
308.958
308.673
308.394
308.122
307.855
307.595
307.341
307.092
306.849
306.611
306.378
306.149
305.925
305.705
305.488
305.275
305.066
304.859
304.654
304.452
304.252
304.054
303.857
303.661
303.467
303.273
303.079
302.885
302.692
302.498
302.303
302.107
301.91
301.712
301.512
301.309
301.105
300.897
300.687
300.473
300.256
300.035
299.81
299.581
299.347
299.108
298.865
298.616
298.362
298.102
297.837
297.566
297.29
297.007
296.718
296.423
296.122
295.815
295.501
295.182
294.856
294.524
294.185
293.841
293.49
293.134
292.771
292.403
292.028
291.649
291.263
290.873
315.153
314.761
314.373
313.99
313.612
313.24
312.872
312.51
312.154
311.804
311.46
311.122
310.79
310.465
310.146
309.834
309.529
309.231
308.939
308.654
308.376
308.104
307.838
307.579
307.325
307.077
306.835
306.597
306.365
306.137
305.914
305.694
305.479
305.266
305.057
304.851
304.648
304.446
304.247
304.05
303.854
303.659
303.465
303.271
303.078
302.886
302.693
302.5
302.306
302.111
301.915
301.717
301.518
301.316
301.112
300.906
300.696
300.483
300.267
300.047
299.822
299.594
299.36
299.122
298.879
298.631
298.377
298.118
297.854
297.583
297.306
297.024
296.735
296.441
296.14
295.832
295.519
295.199
294.873
294.541
294.203
293.858
293.507
293.15
292.788
292.419
292.044
291.664
291.278
290.887
315.134
314.741
314.353
313.969
313.59
313.217
312.849
312.486
312.129
311.778
311.433
311.095
310.762
310.437
310.118
309.806
309.501
309.203
308.911
308.627
308.349
308.077
307.812
307.554
307.301
307.054
306.813
306.576
306.345
306.119
305.896
305.678
305.464
305.253
305.045
304.84
304.638
304.438
304.24
304.043
303.848
303.655
303.462
303.27
303.078
302.886
302.694
302.502
302.31
302.116
301.921
301.725
301.527
301.326
301.124
300.918
300.71
300.498
300.283
300.064
299.841
299.613
299.381
299.143
298.901
298.654
298.401
298.142
297.878
297.608
297.332
297.05
296.761
296.467
296.166
295.859
295.546
295.226
294.9
294.567
294.229
293.884
293.533
293.176
292.812
292.443
292.068
291.688
291.301
290.909
315.108
314.714
314.325
313.941
313.561
313.187
312.818
312.454
312.096
311.744
311.398
311.058
310.725
310.399
310.08
309.768
309.463
309.165
308.873
308.589
308.312
308.041
307.778
307.52
307.269
307.023
306.783
306.548
306.319
306.094
305.873
305.657
305.444
305.235
305.029
304.826
304.625
304.426
304.23
304.035
303.842
303.649
303.458
303.267
303.077
302.887
302.697
302.506
302.315
302.123
301.929
301.735
301.538
301.34
301.139
300.935
300.728
300.518
300.305
300.087
299.865
299.639
299.408
299.171
298.93
298.684
298.432
298.174
297.911
297.641
297.366
297.084
296.796
296.502
296.201
295.894
295.581
295.261
294.935
294.602
294.264
293.918
293.567
293.209
292.846
292.476
292.1
291.719
291.332
290.939
315.076
314.681
314.291
313.905
313.525
313.149
312.779
312.414
312.054
311.701
311.353
311.013
310.679
310.352
310.032
309.72
309.414
309.116
308.826
308.542
308.266
307.996
307.734
307.478
307.228
306.984
306.746
306.513
306.286
306.063
305.845
305.63
305.42
305.213
305.008
304.807
304.608
304.412
304.217
304.025
303.833
303.643
303.453
303.264
303.076
302.887
302.699
302.51
302.321
302.131
301.94
301.747
301.553
301.357
301.158
300.956
300.752
300.544
300.332
300.116
299.896
299.671
299.442
299.207
298.967
298.722
298.471
298.214
297.952
297.683
297.408
297.127
296.84
296.546
296.245
295.939
295.625
295.306
294.979
294.647
294.307
293.962
293.61
293.252
292.887
292.517
292.141
291.758
291.37
290.976
315.037
314.64
314.249
313.863
313.481
313.104
312.732
312.366
312.004
311.649
311.299
310.957
310.622
310.294
309.974
309.661
309.356
309.058
308.768
308.485
308.21
307.942
307.68
307.426
307.178
306.937
306.701
306.471
306.246
306.026
305.81
305.598
305.39
305.186
304.984
304.785
304.589
304.395
304.203
304.012
303.823
303.635
303.448
303.261
303.074
302.888
302.702
302.515
302.329
302.141
301.952
301.762
301.571
301.377
301.181
300.982
300.78
300.574
300.365
300.151
299.933
299.71
299.483
299.25
299.011
298.768
298.518
298.263
298.002
297.734
297.46
297.179
296.892
296.599
296.299
295.992
295.679
295.359
295.033
294.7
294.36
294.014
293.661
293.303
292.938
292.567
292.19
291.806
291.417
291.021
314.99
314.593
314.201
313.814
313.431
313.053
312.679
312.31
311.946
311.588
311.236
310.891
310.555
310.226
309.905
309.592
309.287
308.989
308.699
308.417
308.143
307.877
307.617
307.366
307.12
306.881
306.649
306.421
306.199
305.982
305.77
305.561
305.356
305.154
304.956
304.76
304.566
304.375
304.185
303.998
303.811
303.626
303.441
303.257
303.073
302.889
302.705
302.521
302.337
302.152
301.967
301.78
301.591
301.401
301.208
301.012
300.813
300.61
300.404
300.193
299.977
299.757
299.531
299.3
299.064
298.822
298.574
298.32
298.06
297.794
297.52
297.241
296.954
296.661
296.362
296.055
295.743
295.423
295.096
294.762
294.422
294.075
293.722
293.362
292.997
292.626
292.248
291.863
291.472
291.075
314.937
314.539
314.146
313.758
313.374
312.995
312.618
312.246
311.879
311.517
311.162
310.815
310.476
310.146
309.824
309.511
309.206
308.909
308.62
308.339
308.066
307.801
307.544
307.295
307.053
306.817
306.588
306.364
306.146
305.932
305.723
305.519
305.317
305.119
304.924
304.731
304.54
304.352
304.166
303.981
303.798
303.616
303.434
303.252
303.071
302.89
302.708
302.527
302.346
302.165
301.983
301.8
301.615
301.428
301.238
301.046
300.851
300.652
300.449
300.241
300.028
299.81
299.587
299.358
299.124
298.884
298.638
298.387
298.128
297.863
297.59
297.311
297.025
296.733
296.434
296.128
295.816
295.496
295.169
294.834
294.493
294.145
293.791
293.431
293.065
292.693
292.315
291.929
291.537
291.137
314.875
314.476
314.084
313.696
313.312
312.931
312.552
312.176
311.804
311.437
311.077
310.726
310.385
310.054
309.732
309.419
309.115
308.818
308.529
308.248
307.977
307.714
307.46
307.215
306.977
306.745
306.519
306.299
306.085
305.876
305.671
305.471
305.274
305.08
304.888
304.698
304.511
304.326
304.144
303.963
303.784
303.605
303.427
303.248
303.069
302.89
302.712
302.533
302.356
302.178
302
301.822
301.641
301.458
301.273
301.085
300.894
300.699
300.5
300.296
300.087
299.871
299.65
299.424
299.192
298.954
298.711
298.462
298.206
297.942
297.67
297.391
297.105
296.813
296.515
296.21
295.899
295.579
295.252
294.916
294.573
294.224
293.868
293.508
293.142
292.77
292.391
292.005
291.611
291.21
314.804
314.406
314.015
313.629
313.247
312.865
312.483
312.101
311.722
311.347
310.98
310.624
310.28
309.948
309.627
309.316
309.012
308.715
308.426
308.145
307.875
307.615
307.365
307.124
306.891
306.664
306.442
306.227
306.017
305.812
305.614
305.419
305.227
305.037
304.849
304.663
304.479
304.298
304.119
303.943
303.769
303.594
303.419
303.244
303.067
302.89
302.714
302.539
302.365
302.192
302.02
301.846
301.67
301.492
301.311
301.128
300.942
300.753
300.559
300.359
300.153
299.941
299.722
299.497
299.267
299.033
298.794
298.548
298.294
298.032
297.76
297.481
297.195
296.903
296.605
296.303
295.993
295.675
295.347
295.009
294.663
294.31
293.953
293.592
293.227
292.857
292.479
292.093
291.697
291.293
314.721
314.326
313.939
313.559
313.18
312.798
312.412
312.022
311.632
311.245
310.868
310.505
310.158
309.826
309.509
309.201
308.899
308.602
308.31
308.029
307.758
307.501
307.256
307.022
306.796
306.575
306.358
306.146
305.94
305.742
305.55
305.363
305.177
304.992
304.807
304.624
304.442
304.265
304.091
303.921
303.753
303.584
303.414
303.24
303.065
302.889
302.715
302.542
302.373
302.206
302.04
301.873
301.704
301.53
301.353
301.175
300.995
300.812
300.626
300.432
300.23
300.019
299.801
299.577
299.349
299.119
298.885
298.645
298.395
298.134
297.862
297.581
297.292
296.999
296.703
296.405
296.1
295.783
295.455
295.113
294.762
294.403
294.042
293.681
293.32
292.954
292.578
292.193
291.796
291.389
314.623
314.234
313.853
313.485
313.118
312.738
312.348
311.944
311.538
311.129
310.737
310.362
310.013
309.684
309.377
309.079
308.779
308.48
308.181
307.895
307.623
307.369
307.131
306.909
306.694
306.479
306.267
306.055
305.853
305.661
305.48
305.304
305.126
304.947
304.764
304.582
304.4
304.225
304.057
303.897
303.739
303.577
303.411
303.239
303.065
302.886
302.712
302.541
302.377
302.217
302.062
301.905
301.742
301.573
301.398
301.224
301.05
300.879
300.703
300.516
300.318
300.108
299.889
299.662
299.435
299.208
298.985
298.756
298.511
298.253
297.978
297.691
297.394
297.099
296.805
296.517
296.222
295.91
295.581
295.232
294.872
294.499
294.132
293.77
293.419
293.064
292.693
292.308
291.908
291.501
314.502
314.132
313.746
313.411
313.076
312.69
312.304
311.87
311.449
310.988
310.583
310.182
309.839
309.51
309.232
308.962
308.657
308.358
308.032
307.744
307.46
307.216
306.982
306.785
306.594
306.381
306.174
305.95
305.754
305.564
305.403
305.248
305.076
304.907
304.721
304.541
304.347
304.177
304.012
303.87
303.731
303.575
303.418
303.243
303.069
302.878
302.705
302.53
302.375
302.221
302.085
301.948
301.787
301.624
301.441
301.273
301.102
300.951
300.796
300.614
300.426
300.209
299.99
299.745
299.521
299.294
299.093
298.888
298.646
298.397
298.108
297.818
297.492
297.197
296.899
296.637
296.371
296.059
295.737
295.368
294.998
294.586
294.216
293.844
293.522
293.199
292.825
292.448
292.027
291.632
314.332
314.05
313.568
313.337
313.109
312.643
312.329
311.779
311.415
310.769
310.42
309.921
309.646
309.261
309.075
308.894
308.527
308.277
307.83
307.586
307.24
307.048
306.781
306.651
306.526
306.275
306.105
305.806
305.645
305.424
305.318
305.218
305.023
304.891
304.668
304.519
304.261
304.122
303.931
303.838
303.749
303.573
303.452
303.242
303.099
302.843
302.7
302.492
302.372
302.199
302.112
302.022
301.837
301.704
301.462
301.325
301.127
301.028
300.927
300.721
300.575
300.312
300.129
299.796
299.611
299.341
299.208
299.072
298.794
298.596
298.241
297.995
297.547
297.3
296.94
296.764
296.586
296.22
295.963
295.502
295.186
294.614
294.3
293.846
293.627
293.408
292.959
292.652
292.11
291.804
290.431
289.949
289.461
288.967
288.467
287.961
287.452
286.937
286.42
285.899
285.375
284.85
284.322
283.794
283.265
290.438
289.956
289.467
288.972
288.472
287.966
287.456
286.941
286.423
285.901
285.377
284.851
284.324
283.795
283.265
290.451
289.969
289.479
288.984
288.482
287.975
287.464
286.948
286.429
285.907
285.382
284.855
284.326
283.796
283.265
290.472
289.988
289.498
289
288.497
287.989
287.476
286.959
286.438
285.914
285.388
284.859
284.329
283.798
283.266
290.5
290.015
289.522
289.023
288.518
288.008
287.493
286.973
286.45
285.925
285.396
284.866
284.334
283.801
283.267
290.536
290.048
289.553
289.052
288.544
288.031
287.513
286.991
286.466
285.937
285.406
284.874
284.339
283.804
283.268
290.579
290.089
289.591
289.086
288.575
288.059
287.537
287.012
286.484
285.952
285.419
284.883
284.346
283.808
283.269
290.63
290.137
289.635
289.127
288.612
288.091
287.566
287.037
286.505
285.97
285.433
284.894
284.354
283.812
283.271
290.69
290.193
289.687
289.173
288.653
288.128
287.598
287.065
286.528
285.989
285.448
284.906
284.362
283.818
283.273
290.759
290.257
289.746
289.226
288.701
288.169
287.634
287.095
286.554
286.011
285.465
284.919
284.371
283.823
283.274
290.839
290.331
289.813
289.286
288.753
288.215
287.673
287.129
286.582
286.034
285.484
284.933
284.381
283.829
283.276
290.931
290.415
289.888
289.352
288.81
288.264
287.715
287.164
286.612
286.058
285.503
284.948
284.392
283.835
283.278
291.038
290.512
289.971
289.423
288.871
288.316
287.759
287.201
286.643
286.083
285.523
284.963
284.402
283.842
283.281
291.166
290.622
290.063
289.499
288.934
288.369
287.804
287.239
286.674
286.109
285.544
284.979
284.414
283.848
283.283
291.331
290.747
290.159
289.576
288.997
288.422
287.848
287.277
286.705
286.135
285.565
284.995
284.425
283.855
283.285
322.715
322.145
321.575
321.005
320.435
319.865
319.294
318.723
318.151
317.577
317.001
316.421
315.832
315.226
314.571
322.713
322.139
321.565
320.991
320.417
319.842
319.267
318.691
318.113
317.534
316.951
316.362
315.765
315.149
314.502
322.711
322.134
321.556
320.978
320.4
319.821
319.241
318.66
318.078
317.493
316.905
316.311
315.709
315.095
314.465
322.709
322.128
321.547
320.965
320.383
319.8
319.216
318.631
318.044
317.455
316.862
316.265
315.662
315.052
314.438
322.708
322.123
321.538
320.952
320.366
319.779
319.192
318.603
318.012
317.419
316.823
316.224
315.62
315.011
314.395
322.706
322.117
321.529
320.94
320.35
319.76
319.168
318.576
317.981
317.385
316.786
316.185
315.582
314.977
314.372
322.704
322.112
321.52
320.928
320.335
319.741
319.146
318.55
317.952
317.353
316.752
316.149
315.545
314.942
314.348
322.702
322.107
321.512
320.916
320.32
319.723
319.125
318.525
317.924
317.322
316.718
316.113
315.507
314.901
314.295
322.701
322.103
321.504
320.905
320.306
319.705
319.104
318.502
317.898
317.293
316.686
316.078
315.468
314.86
314.259
322.699
322.098
321.496
320.894
320.292
319.689
319.084
318.479
317.872
317.264
316.654
316.043
315.43
314.814
314.191
322.698
322.094
321.489
320.884
320.279
319.673
319.065
318.457
317.848
317.237
316.624
316.01
315.393
314.774
314.155
322.697
322.089
321.482
320.874
320.266
319.657
319.047
318.436
317.824
317.211
316.595
315.978
315.358
314.734
314.102
322.695
322.085
321.475
320.865
320.254
319.643
319.03
318.417
317.802
317.186
316.568
315.948
315.326
314.7
314.073
322.694
322.082
321.469
320.856
320.243
319.629
319.014
318.398
317.78
317.162
316.542
315.92
315.296
314.668
314.032
322.693
322.078
321.463
320.848
320.232
319.615
318.998
318.38
317.76
317.139
316.517
315.894
315.268
314.641
314.013
322.691
322.074
321.457
320.839
320.221
319.602
318.983
318.362
317.741
317.118
316.494
315.869
315.242
314.616
313.995
322.69
322.071
321.451
320.832
320.211
319.59
318.968
318.346
317.722
317.097
316.472
315.844
315.216
314.588
313.958
322.689
322.068
321.446
320.824
320.202
319.579
318.955
318.33
317.705
317.078
316.45
315.821
315.191
314.56
313.933
322.688
322.065
321.441
320.817
320.192
319.567
318.942
318.315
317.688
317.059
316.429
315.798
315.166
314.531
313.89
322.687
322.062
321.436
320.81
320.184
319.557
318.929
318.301
317.672
317.041
316.41
315.777
315.142
314.506
313.867
322.686
322.059
321.431
320.804
320.175
319.547
318.917
318.287
317.656
317.024
316.391
315.757
315.121
314.482
313.836
322.685
322.056
321.427
320.798
320.168
319.537
318.906
318.274
317.642
317.008
316.374
315.738
315.101
314.463
313.822
322.685
322.054
321.423
320.792
320.16
319.528
318.895
318.262
317.628
316.993
316.357
315.72
315.083
314.445
313.81
322.684
322.051
321.419
320.786
320.153
319.519
318.885
318.25
317.615
316.978
316.341
315.703
315.064
314.425
313.785
322.683
322.049
321.415
320.781
320.146
319.511
318.876
318.239
317.602
316.964
316.326
315.686
315.046
314.406
313.769
322.682
322.047
321.412
320.776
320.14
319.503
318.866
318.229
317.59
316.951
316.311
315.67
315.029
314.386
313.742
322.682
322.045
321.408
320.771
320.134
319.496
318.858
318.219
317.579
316.939
316.297
315.655
315.012
314.368
313.725
322.681
322.043
321.405
320.767
320.128
319.489
318.85
318.209
317.568
316.927
316.284
315.64
314.995
314.348
313.696
322.68
322.041
321.402
320.763
320.123
319.483
318.842
318.2
317.558
316.915
316.272
315.627
314.98
314.332
313.682
322.68
322.04
321.399
320.759
320.118
319.476
318.835
318.192
317.549
316.905
316.26
315.614
314.967
314.317
313.663
322.679
322.038
321.397
320.755
320.113
319.471
318.828
318.184
317.54
316.895
316.249
315.603
314.955
314.305
313.654
322.679
322.037
321.394
320.752
320.109
319.465
318.822
318.177
317.532
316.886
316.24
315.592
314.944
314.295
313.647
322.678
322.035
321.392
320.748
320.105
319.46
318.816
318.171
317.525
316.878
316.231
315.582
314.933
314.284
313.633
322.678
322.034
321.39
320.746
320.101
319.456
318.81
318.164
317.518
316.87
316.222
315.573
314.923
314.273
313.624
322.678
322.033
321.388
320.743
320.098
319.452
318.806
318.159
317.511
316.863
316.214
315.565
314.914
314.263
313.61
322.677
322.032
321.386
320.741
320.094
319.448
318.801
318.154
317.506
316.857
316.207
315.557
314.905
314.253
313.602
322.677
322.031
321.385
320.738
320.092
319.445
318.797
318.149
317.5
316.851
316.201
315.55
314.897
314.244
313.588
322.677
322.03
321.383
320.736
320.089
319.442
318.793
318.145
317.496
316.846
316.195
315.543
314.89
314.236
313.581
322.676
322.029
321.382
320.735
320.087
319.439
318.79
318.141
317.491
316.841
316.19
315.538
314.884
314.23
313.573
322.676
322.029
321.381
320.733
320.085
319.437
318.788
318.138
317.488
316.837
316.186
315.533
314.88
314.225
313.569
322.676
322.028
321.38
320.732
320.083
319.435
318.785
318.135
317.485
316.834
316.182
315.529
314.876
314.221
313.567
322.676
322.028
321.379
320.731
320.082
319.433
318.783
318.133
317.483
316.831
316.179
315.526
314.872
314.218
313.562
322.676
322.027
321.379
320.73
320.081
319.432
318.782
318.132
317.481
316.829
316.177
315.524
314.87
314.215
313.56
322.676
322.027
321.379
320.73
320.08
319.431
318.781
318.131
317.479
316.828
316.175
315.522
314.868
314.213
313.557
322.676
322.027
321.378
320.729
320.08
319.43
318.78
318.13
317.479
316.827
316.174
315.521
314.867
314.211
313.556
322.676
322.027
321.378
320.729
320.08
319.43
318.78
318.13
317.478
316.826
316.174
315.52
314.866
314.211
313.555
322.676
322.027
321.378
320.729
320.08
319.431
318.781
318.13
317.479
316.827
316.174
315.521
314.866
314.211
313.555
322.676
322.027
321.379
320.73
320.081
319.431
318.781
318.131
317.48
316.828
316.175
315.522
314.867
314.212
313.556
322.676
322.028
321.379
320.73
320.081
319.432
318.782
318.132
317.481
316.829
316.177
315.523
314.869
314.214
313.557
322.676
322.028
321.38
320.731
320.083
319.433
318.784
318.134
317.483
316.831
316.179
315.526
314.872
314.216
313.559
322.676
322.028
321.38
320.732
320.084
319.435
318.786
318.136
317.486
316.834
316.182
315.529
314.875
314.22
313.563
322.676
322.029
321.381
320.734
320.086
319.437
318.788
318.139
317.489
316.838
316.186
315.533
314.88
314.224
313.567
322.677
322.03
321.383
320.735
320.088
319.44
318.791
318.142
317.493
316.842
316.191
315.538
314.885
314.231
313.575
322.677
322.03
321.384
320.737
320.09
319.443
318.795
318.146
317.497
316.847
316.196
315.544
314.892
314.238
313.581
322.677
322.031
321.385
320.739
320.093
319.446
318.799
318.151
317.502
316.852
316.202
315.551
314.899
314.246
313.594
322.677
322.032
321.387
320.742
320.096
319.45
318.803
318.156
317.508
316.859
316.209
315.558
314.907
314.255
313.602
322.678
322.034
321.389
320.744
320.099
319.454
318.808
318.161
317.514
316.866
316.216
315.566
314.915
314.264
313.614
322.678
322.035
321.391
320.747
320.103
319.458
318.813
318.167
317.521
316.873
316.225
315.575
314.925
314.273
313.62
322.679
322.036
321.393
320.75
320.107
319.463
318.819
318.174
317.528
316.882
316.234
315.585
314.935
314.282
313.627
322.679
322.038
321.396
320.754
320.112
319.469
318.825
318.181
317.536
316.891
316.244
315.596
314.946
314.295
313.642
322.68
322.039
321.399
320.758
320.116
319.475
318.832
318.189
317.545
316.901
316.255
315.608
314.959
314.308
313.653
322.68
322.041
321.401
320.762
320.122
319.481
318.84
318.198
317.555
316.911
316.267
315.621
314.974
314.325
313.675
322.681
322.043
321.405
320.766
320.127
319.488
318.848
318.207
317.566
316.923
316.28
315.635
314.989
314.342
313.69
322.682
322.045
321.408
320.771
320.133
319.495
318.856
318.217
317.577
316.936
316.293
315.65
315.006
314.362
313.72
322.682
322.047
321.411
320.776
320.139
319.503
318.865
318.227
317.589
316.949
316.308
315.666
315.024
314.381
313.737
322.683
322.049
321.415
320.781
320.146
319.511
318.875
318.239
317.601
316.963
316.323
315.683
315.042
314.401
313.763
322.684
322.052
321.419
320.786
320.153
319.52
318.885
318.25
317.614
316.978
316.34
315.701
315.06
314.418
313.775
322.685
322.054
321.423
320.792
320.161
319.529
318.896
318.263
317.628
316.993
316.357
315.719
315.079
314.437
313.788
322.686
322.057
321.428
320.798
320.169
319.538
318.907
318.276
317.643
317.01
316.375
315.739
315.101
314.46
313.818
322.686
322.059
321.432
320.805
320.177
319.548
318.919
318.29
317.659
317.027
316.394
315.76
315.124
314.484
313.838
322.687
322.062
321.437
320.811
320.185
319.559
318.932
318.304
317.675
317.046
316.415
315.783
315.149
314.513
313.877
322.688
322.065
321.442
320.818
320.194
319.57
318.945
318.319
317.693
317.065
316.436
315.807
315.176
314.543
313.904
322.69
322.068
321.447
320.826
320.204
319.582
318.959
318.335
317.71
317.085
316.459
315.832
315.204
314.577
313.954
322.691
322.072
321.453
320.833
320.214
319.594
318.973
318.351
317.729
317.106
316.482
315.857
315.232
314.608
313.982
322.692
322.075
321.458
320.841
320.224
319.606
318.987
318.368
317.748
317.127
316.506
315.883
315.261
314.639
314.024
322.693
322.079
321.464
320.85
320.235
319.619
319.003
318.386
317.768
317.149
316.53
315.91
315.288
314.666
314.044
322.694
322.082
321.47
320.858
320.246
319.632
319.019
318.404
317.789
317.172
316.555
315.936
315.316
314.694
314.063
322.695
322.086
321.477
320.867
320.257
319.646
319.035
318.423
317.81
317.196
316.581
315.965
315.347
314.727
314.106
322.697
322.09
321.483
320.876
320.269
319.661
319.052
318.442
317.832
317.22
316.608
315.994
315.378
314.76
314.135
322.698
322.094
321.49
320.886
320.281
319.676
319.07
318.462
317.855
317.246
316.636
316.025
315.412
314.799
314.187
322.7
322.099
321.497
320.896
320.294
319.691
319.088
318.483
317.878
317.272
316.664
316.056
315.447
314.837
314.222
322.701
322.103
321.505
320.906
320.307
319.707
319.107
318.505
317.902
317.298
316.694
316.088
315.483
314.879
314.283
322.703
322.108
321.512
320.917
320.321
319.724
319.126
318.527
317.927
317.326
316.724
316.12
315.517
314.915
314.316
322.704
322.112
321.52
320.928
320.335
319.741
319.147
318.551
317.954
317.355
316.754
316.152
315.55
314.95
314.359
322.706
322.117
321.529
320.94
320.35
319.76
319.168
318.575
317.981
317.384
316.786
316.185
315.582
314.979
314.379
322.708
322.123
321.537
320.952
320.365
319.778
319.19
318.601
318.009
317.416
316.819
316.219
315.615
315.007
314.395
322.709
322.128
321.546
320.964
320.382
319.798
319.214
318.628
318.04
317.449
316.855
316.256
315.65
315.038
314.421
322.711
322.133
321.555
320.977
320.398
319.819
319.238
318.656
318.072
317.485
316.894
316.297
315.69
315.071
314.436
322.713
322.139
321.565
320.99
320.415
319.84
319.264
318.686
318.107
317.524
316.938
316.345
315.74
315.114
314.448
322.715
322.145
321.574
321.004
320.433
319.862
319.29
318.717
318.143
317.566
316.986
316.4
315.804
315.186
314.512
291.544
290.864
290.242
289.642
289.052
288.468
287.888
287.31
286.734
286.158
285.583
285.009
284.435
283.861
283.287
291.603
290.932
290.302
289.694
289.098
288.508
287.923
287.34
286.759
286.179
285.6
285.022
284.444
283.866
283.289
291.606
290.969
290.348
289.739
289.139
288.545
287.955
287.368
286.783
286.199
285.616
285.034
284.453
283.872
283.291
291.614
290.997
290.384
289.777
289.175
288.579
287.986
287.395
286.806
286.219
285.632
285.047
284.462
283.877
283.292
291.626
291.022
290.416
289.811
289.209
288.61
288.014
287.42
286.828
286.237
285.648
285.058
284.47
283.882
283.294
291.65
291.049
290.446
289.842
289.24
288.64
288.041
287.444
286.849
286.255
285.662
285.07
284.478
283.887
283.296
291.671
291.078
290.477
289.873
289.27
288.668
288.067
287.468
286.869
286.272
285.676
285.081
284.486
283.891
283.297
291.713
291.112
290.509
289.904
289.299
288.695
288.092
287.49
286.889
286.289
285.69
285.091
284.494
283.896
283.299
291.744
291.147
290.542
289.935
289.328
288.721
288.116
287.511
286.907
286.305
285.703
285.102
284.501
283.9
283.3
291.804
291.187
290.576
289.965
289.356
288.747
288.139
287.532
286.925
286.32
285.715
285.111
284.508
283.905
283.302
291.837
291.223
290.609
289.995
289.383
288.772
288.161
287.552
286.943
286.335
285.728
285.121
284.515
283.909
283.303
291.887
291.261
290.641
290.025
289.41
288.796
288.183
287.571
286.96
286.349
285.739
285.13
284.521
283.913
283.304
291.915
291.293
290.672
290.053
289.435
288.819
288.204
287.589
286.976
286.363
285.751
285.139
284.527
283.916
283.305
291.955
291.324
290.701
290.08
289.46
288.842
288.224
287.607
286.992
286.376
285.762
285.147
284.534
283.92
283.307
291.974
291.351
290.728
290.106
289.484
288.864
288.244
287.625
287.007
286.389
285.772
285.156
284.539
283.924
283.308
291.993
291.377
290.754
290.131
289.507
288.885
288.263
287.642
287.021
286.401
285.782
285.163
284.545
283.927
283.309
292.033
291.407
290.781
290.156
289.53
288.905
288.281
287.658
287.035
286.413
285.792
285.171
284.551
283.93
283.31
292.06
291.436
290.809
290.18
289.552
288.925
288.299
287.674
287.049
286.425
285.801
285.178
284.556
283.933
283.311
292.108
291.469
290.836
290.204
289.574
288.945
288.316
287.689
287.062
286.436
285.811
285.186
284.561
283.936
283.312
292.134
291.498
290.862
290.227
289.595
288.963
288.333
287.703
287.075
286.447
285.819
285.192
284.566
283.939
283.313
292.172
291.526
290.886
290.249
289.615
288.981
288.349
287.717
287.087
286.457
285.828
285.199
284.57
283.942
283.314
292.192
291.549
290.908
290.27
289.633
288.998
288.364
287.731
287.098
286.467
285.836
285.205
284.575
283.945
283.315
292.22
291.572
290.929
290.289
289.651
289.014
288.378
287.743
287.109
286.476
285.843
285.211
284.579
283.947
283.316
292.233
291.59
290.948
290.307
289.668
289.029
288.392
287.755
287.12
286.485
285.85
285.217
284.583
283.95
283.317
292.245
291.607
290.965
290.324
289.683
289.044
288.405
287.767
287.13
286.493
285.857
285.222
284.587
283.952
283.317
292.27
291.626
290.983
290.34
289.698
289.057
288.417
287.778
287.139
286.501
285.864
285.227
284.59
283.954
283.318
292.287
291.645
291
290.356
289.713
289.07
288.429
287.788
287.148
286.509
285.87
285.232
284.594
283.956
283.319
292.316
291.664
291.017
290.371
289.726
289.082
288.44
287.798
287.156
286.516
285.876
285.236
284.597
283.958
283.319
292.331
291.681
291.032
290.385
289.739
289.094
288.45
287.807
287.164
286.523
285.881
285.241
284.6
283.96
283.32
292.352
291.697
291.047
290.398
289.751
289.104
288.459
287.815
287.172
286.529
285.887
285.245
284.603
283.962
283.321
292.364
291.711
291.059
290.41
289.761
289.114
288.468
287.823
287.179
286.535
285.891
285.248
284.606
283.963
283.321
292.379
291.723
291.071
290.42
289.771
289.123
288.476
287.83
287.185
286.54
285.896
285.252
284.608
283.965
283.322
292.385
291.733
291.081
290.43
289.78
289.132
288.484
287.837
287.191
286.545
285.9
285.255
284.611
283.966
283.322
292.392
291.741
291.09
290.439
289.789
289.139
288.491
287.843
287.196
286.55
285.904
285.258
284.613
283.968
283.322
292.404
291.751
291.099
290.447
289.796
289.147
288.497
287.849
287.201
286.554
285.907
285.261
284.615
283.969
283.323
292.411
291.759
291.107
290.455
289.803
289.153
288.503
287.854
287.206
286.558
285.91
285.263
284.616
283.97
283.323
292.424