/*--------------------------------*- C++ -*----------------------------------*\
| =========                 |                                                 |
| \\      /  F ield         | OpenFOAM: The Open Source CFD Toolbox           |
|  \\    /   O peration     | Version:  5.x                                   |
|   \\  /    A nd           | Web:      www.OpenFOAM.org                      |
|    \\/     M anipulation  |                                                 |
\*---------------------------------------------------------------------------*/
FoamFile
{
    version     2.0;
    format      ascii;
    class       volScalarField;
    location    "1.9";
    object      gradTy;
}
// * * * * * * * * * * * * * * * * * * * * * * * * * * * * * * * * * * * * * //

dimensions      [0 -1 0 1 0 0 0];

internalField   nonuniform List<scalar> 
6300
(
32274.8
32224.4
32174.1
32123.9
32073.8
32023.9
31974.1
31924.7
31875.5
31826.6
31778
31729.9
31682.2
31634.9
31588.2
-0.0271188
-0.0814642
-0.13611
-0.191206
-0.246823
-0.30292
-0.359315
-0.415662
-0.471442
-0.525989
-0.578532
-0.628301
-0.674662
-0.717274
-0.756241
-0.045076
-0.135427
-0.226336
-0.318085
-0.410826
-0.504523
-0.598894
-0.693371
-0.787073
-0.878826
-0.967242
-1.05088
-1.12851
-1.19939
-1.26362
-0.0628416
-0.188831
-0.315709
-0.443952
-0.573848
-0.705418
-0.83833
-0.971812
-1.1046
-1.23495
-1.36067
-1.47943
-1.58905
-1.68811
-1.77648
-0.0802947
-0.241339
-0.403711
-0.568155
-0.73518
-0.904953
-1.07717
-1.25091
-1.42455
-1.59565
-1.76103
-1.91706
-2.06012
-2.18751
-2.29843
-0.0972824
-0.292498
-0.489615
-0.68974
-0.893719
-1.10199
-1.31442
-1.53006
-1.74697
-1.96198
-2.17068
-2.36757
-2.54678
-2.70329
-2.83473
-0.11362
-0.341748
-0.572494
-0.807448
-1.04793
-1.29484
-1.5484
-1.80788
-2.07121
-2.33457
-2.59207
-2.83571
-3.05608
-3.24408
-3.39393
-0.129065
-0.388366
-0.651143
-0.919589
-1.19567
-1.48097
-1.77639
-2.08178
-2.39535
-2.71295
-3.02724
-3.32706
-3.59771
-3.82296
-3.98996
-0.143334
-0.431487
-0.724087
-1.02404
-1.33414
-1.65691
-1.99433
-2.34741
-2.71538
-3.09456
-3.47678
-3.84749
-4.18464
-4.46002
-4.64635
-0.156107
-0.470138
-0.789635
-1.1183
-1.45988
-1.81812
-2.19655
-2.59806
-3.0241
-3.47306
-3.93774
-4.4014
-4.83323
-5.18601
-5.40355
-0.167057
-0.503296
-0.845974
-1.19958
-1.5689
-1.95906
-2.37558
-2.8241
-3.3098
-3.83576
-4.39962
-4.98703
-5.56071
-6.047
-6.3331
-0.17587
-0.529988
-0.89134
-1.2651
-1.65699
-2.07358
-2.52253
-3.01289
-3.55515
-4.16045
-4.83783
-5.5862
-6.37535
-7.10784
-7.56822
-0.182298
-0.549418
-0.924252
-1.31242
-1.72033
-2.15565
-2.62797
-3.1497
-3.73736
-4.41297
-5.20488
-6.14435
-7.24628
-8.44034
-9.38044
-0.18619
-0.561106
-0.943782
-1.33993
-1.75617
-2.20063
-2.6839
-3.22051
-3.83152
-4.54904
-5.42415
-6.53975
-8.02466
-10.0263
-12.3726
-0.187537
-0.565003
-0.94979
-1.34728
-1.7637
-2.20673
-2.68642
-3.21683
-3.81905
-4.52736
-5.40269
-6.56549
-8.28595
-11.2675
-17.6758
31545.7
31507.6
31469.8
31432.4
31395.4
31358.8
31322.6
31287
31251.7
31217
31182.8
31149.1
31115.9
31083.2
31051.1
31019.6
30988.6
30958.2
30928.3
30899
30870.3
30842.1
30814.4
30787.2
30760.6
30734.4
30708.6
30683.3
30658.5
30633.9
30609.8
30586
30562.5
30539.3
30516.3
30493.6
30471.1
30448.8
30426.6
30404.6
30382.7
30360.9
30339.2
30317.5
30295.8
30274.2
30252.5
30230.9
30209.1
30187.3
30165.4
30143.4
30121.3
30098.9
30076.4
30053.7
30030.7
30007.4
29983.9
29960.1
29935.9
29911.4
29886.5
29861.3
29835.6
29809.6
29783.1
29756.2
29728.8
29700.9
29672.6
29643.9
29614.6
29584.9
29554.7
29524
29492.8
29461.1
29428.9
29396.3
29363.1
29329.5
29295.3
29260.7
29225.7
29190.1
29154.1
29117.7
29080.8
29043.5
-0.789197
-0.817791
-0.845838
-0.874189
-0.903581
-0.934488
-0.96701
-1.00082
-1.03517
-1.06902
-1.10117
-1.1304
-1.15564
-1.17607
-1.1911
-1.20042
-1.20383
-1.20126
-1.19271
-1.17819
-1.1578
-1.13172
-1.10026
-1.06384
-1.02302
-0.978383
-0.930586
-0.880266
-0.828052
-0.774546
-0.720317
-0.665882
-0.611684
-0.558068
-0.505274
-0.453441
-0.402632
-0.352866
-0.304145
-0.256467
-0.209813
-0.164116
-0.119235
-0.0749303
-0.0308659
0.0133576
0.0581493
0.103865
0.150749
0.198899
0.248254
0.298611
0.349656
0.400999
0.452207
0.502817
0.552362
0.600387
0.646478
0.690289
0.731577
0.770202
0.806122
0.839354
0.869936
0.897888
0.923197
0.945827
0.965751
0.982983
0.997604
1.00975
1.01961
1.02732
1.03301
1.03674
1.03851
1.03833
1.03623
1.03231
1.0267
1.01953
1.01086
1.00059
0.988466
0.97406
0.956836
0.93623
0.911753
0.883068
-1.3174
-1.36378
-1.40917
-1.45525
-1.50348
-1.55483
-1.60955
-1.66706
-1.72598
-1.78433
-1.83983
-1.89024
-1.93365
-1.96861
-1.99422
-2.01002
-2.01583
-2.01159
-1.99729
-1.97295
-1.93867
-1.89471
-1.84159
-1.78004
-1.71103
-1.63562
-1.55494
-1.47007
-1.38209
-1.29201
-1.20081
-1.10938
-1.01851
-0.928769
-0.84056
-0.754075
-0.669367
-0.586425
-0.505237
-0.425814
-0.348169
-0.272243
-0.197834
-0.124535
-0.051737
0.0213108
0.0953915
0.171188
0.249167
0.329506
0.412079
0.496499
0.582188
0.668449
0.754523
0.839615
0.92291
1.00361
1.08097
1.15437
1.2234
1.28785
1.34768
1.403
1.45394
1.50054
1.54278
1.58053
1.61371
1.6423
1.66644
1.68642
1.70258
1.71525
1.72466
1.73085
1.73379
1.73343
1.72978
1.72304
1.71349
1.70148
1.68717
1.67049
1.65098
1.62783
1.60003
1.56649
1.52627
1.47869
-1.84914
-1.91105
-1.97141
-2.03311
-2.09875
-2.17018
-2.24795
-2.33115
-2.41748
-2.5036
-2.58568
-2.66004
-2.72366
-2.77446
-2.81132
-2.83387
-2.84215
-2.83625
-2.81619
-2.78189
-2.73333
-2.67078
-2.59492
-2.50688
-2.40814
-2.30036
-2.18521
-2.06428
-1.93906
-1.81101
-1.68155
-1.55203
-1.42362
-1.29721
-1.17332
-1.05211
-0.933529
-0.817438
-0.703773
-0.592599
-0.484054
-0.378203
-0.274859
-0.173453
-0.0730134
0.0277213
0.130098
0.235294
0.344104
0.456802
0.573141
0.692447
0.813772
0.936037
1.05811
1.17885
1.29704
1.41147
1.52097
1.62458
1.72165
1.81193
1.89553
1.97277
2.04397
2.10927
2.16858
2.2216
2.26804
2.30779
2.34105
2.36833
2.39033
2.40766
2.42067
2.4294
2.4336
2.43301
2.42756
2.41756
2.40362
2.38648
2.36669
2.34425
2.31849
2.28808
2.25126
2.20616
2.15116
2.08513
-2.38688
-2.46057
-2.53176
-2.6053
-2.68576
-2.77644
-2.87856
-2.99078
-3.10933
-3.22872
-3.34268
-3.44534
-3.53217
-3.60041
-3.64905
-3.67831
-3.6889
-3.68133
-3.65562
-3.61137
-3.54815
-3.46602
-3.36579
-3.24912
-3.11826
-2.9757
-2.82379
-2.66463
-2.50008
-2.33201
-2.16234
-1.99302
-1.82582
-1.66199
-1.50215
-1.34631
-1.19404
-1.04489
-0.898652
-0.75552
-0.615978
-0.48047
-0.349008
-0.220887
-0.0946214
0.0318649
0.160843
0.294303
0.433548
0.578966
0.730047
0.885607
1.04412
1.20401
1.36376
1.52186
1.67671
1.82655
1.9696
2.10434
2.2298
2.34576
2.45267
2.55136
2.64261
2.72676
2.80356
2.87228
2.93214
2.98274
3.02437
3.05799
3.08493
3.10638
3.12298
3.13457
3.14041
3.13968
3.13201
3.11784
3.09844
3.07542
3.05011
3.02288
2.9928
2.95767
2.91449
2.86014
2.79196
2.70813
-2.93422
-3.01361
-3.08868
-3.1675
-3.25802
-3.36624
-3.49464
-3.64127
-3.80001
-3.96166
-4.11594
-4.25346
-4.36746
-4.45459
-4.51469
-4.54964
-4.5618
-4.55254
-4.52176
-4.46815
-4.39022
-4.28731
-4.16034
-4.01178
-3.84524
-3.66449
-3.47282
-3.27272
-3.06618
-2.85531
-2.64261
-2.43098
-2.22314
-2.021
-1.82524
-1.63534
-1.45006
-1.26814
-1.08905
-0.913261
-0.742081
-0.576894
-0.418328
-0.265634
-0.116531
0.0324371
0.18515
0.345001
0.514125
0.693001
0.880529
1.07454
1.27253
1.47223
1.67181
1.8696
2.06363
2.25145
2.43023
2.59748
2.75166
2.89266
3.02169
3.14071
3.25151
3.35489
3.45021
3.53577
3.60962
3.67067
3.71928
3.75732
3.78746
3.81215
3.83255
3.84807
3.85675
3.85641
3.84585
3.82574
3.79853
3.76771
3.73634
3.70568
3.67444
3.63888
3.59386
3.53413
3.45538
3.3548
-3.49747
-3.57292
-3.64025
-3.71293
-3.80487
-3.92712
-4.0846
-4.27452
-4.48664
-4.70543
-4.91351
-5.09563
-5.24162
-5.34788
-5.41671
-5.45399
-5.46569
-5.45493
-5.42093
-5.36012
-5.2684
-5.14343
-4.9861
-4.80049
-4.59278
-4.36915
-4.13411
-3.89016
-3.63863
-3.38132
-3.12143
-2.86354
-2.61231
-2.37086
-2.13991
-1.91775
-1.70124
-1.48732
-1.27465
-1.06434
-0.859504
-0.663721
-0.479115
-0.305118
-0.138139
0.0277335
0.19931
0.382489
0.58082
0.794752
1.02187
1.25796
1.49868
1.74086
1.9827
2.22299
2.45979
2.68962
2.90778
3.10975
3.29283
3.45712
3.60546
3.74223
3.87147
3.99496
4.1113
4.21647
4.30592
4.37688
4.42981
4.46841
4.49825
4.52451
4.54955
4.5718
4.5865
4.58824
4.57387
4.54423
4.50424
4.46119
4.42192
4.38971
4.36267
4.33408
4.29474
4.23582
4.15053
4.03474
-4.08764
-4.14389
-4.18415
-4.23063
-4.30813
-4.43734
-4.62795
-4.87595
-5.16383
-5.46478
-5.74867
-5.99
-6.1732
-6.29526
-6.36435
-6.39536
-6.40215
-6.39095
-6.35893
-6.2968
-6.19463
-6.04636
-5.85275
-5.62121
-5.36341
-5.09038
-4.8084
-4.51864
-4.21955
-3.91114
-3.59748
-3.28664
-2.98747
-2.70567
-2.44198
-2.19209
-1.94872
-1.70474
-1.45689
-1.20752
-0.963882
-0.734427
-0.524578
-0.334431
-0.158078
0.0149052
0.19686
0.398272
0.625176
0.877664
1.15044
1.4349
1.72295
2.0102
2.29606
2.58169
2.86624
3.14487
3.40894
3.64952
3.86136
4.04488
4.20625
4.35494
4.50006
4.64571
4.78884
4.92021
5.02924
5.10948
5.16139
5.19253
5.21464
5.23907
5.271
5.30684
5.33536
5.34373
5.32433
5.27807
5.2148
5.1497
5.09776
5.06673
5.05359
5.04517
5.02423
4.97588
4.88997
4.76112
-4.7246
-4.73782
-4.71897
-4.70351
-4.73675
-4.85894
-5.08847
-5.41979
-5.82206
-6.2486
-6.64497
-6.968
-7.19268
-7.31881
-7.36674
-7.37149
-7.36442
-7.35686
-7.34018
-7.29105
-7.18716
-7.01448
-6.77392
-6.47967
-6.1559
-5.82443
-5.49381
-5.16046
-4.8138
-4.44847
-4.06938
-3.69285
-3.33754
-3.01434
-2.72413
-2.45695
-2.19702
-1.92767
-1.64127
-1.34242
-1.04781
-0.776876
-0.541655
-0.343863
-0.173146
-0.0108353
0.166388
0.377325
0.632661
0.931317
1.26214
1.60661
1.94834
2.28149
2.60974
2.94187
3.28118
3.62102
3.94389
4.23062
4.47061
4.66447
4.82522
4.97272
5.12782
5.29999
5.48323
5.65604
5.79389
5.88278
5.92277
5.92956
5.9276
5.94272
5.98672
6.05232
6.11314
6.13913
6.11337
6.03632
5.92792
5.81916
5.74342
5.71795
5.73762
5.77423
5.79314
5.76995
5.69114
5.55223
-5.44472
-5.37767
-5.2486
-5.10581
-5.03677
-5.12528
-5.40167
-5.86069
-6.44457
-7.07508
-7.64611
-8.08683
-8.35332
-8.4542
-8.43054
-8.36388
-8.32661
-8.33516
-8.3674
-8.36342
-8.27804
-8.07965
-7.77173
-7.37996
-6.95883
-6.55664
-6.18255
-5.82089
-5.43436
-5.00508
-4.53708
-4.06803
-3.64094
-3.2751
-2.97274
-2.71102
-2.45859
-2.17487
-1.84336
-1.47105
-1.09752
-0.767827
-0.504813
-0.314335
-0.176177
-0.058167
0.0871969
0.292207
0.577472
0.938284
1.35378
1.78178
2.18555
2.55928
2.9172
3.29111
3.6947
4.12088
4.53012
4.87819
5.14543
5.33086
5.46235
5.57858
5.72998
5.93731
6.19156
6.44108
6.62788
6.72533
6.73073
6.67799
6.61473
6.60353
6.6701
6.80342
6.93978
7.00779
6.97498
6.83845
6.6403
6.43985
6.31548
6.30295
6.39607
6.52765
6.62152
6.64305
6.57777
6.43401
-6.31485
-6.10631
-5.79748
-5.4014
-5.10931
-5.12039
-5.45104
-6.12084
-6.9989
-7.98619
-8.83384
-9.45548
-9.75136
-9.76784
-9.55519
-9.31284
-9.22177
-9.27826
-9.44571
-9.55197
-9.53064
-9.30151
-8.88932
-8.32155
-7.73356
-7.24746
-6.85251
-6.51631
-6.11568
-5.61665
-5.00554
-4.38207
-3.85544
-3.44384
-3.16228
-2.9512
-2.76476
-2.49051
-2.10383
-1.60112
-1.08388
-0.662589
-0.36344
-0.209475
-0.150273
-0.145041
-0.0781042
0.0912293
0.41314
0.866068
1.42688
1.99126
2.46535
2.85908
3.20078
3.59672
4.07475
4.64415
5.20342
5.64107
5.93687
6.07369
6.12015
6.13243
6.25022
6.50559
6.9052
7.3149
7.58893
7.69878
7.62074
7.43981
7.22516
7.15058
7.25555
7.54833
7.86302
8.0198
7.98411
7.72751
7.35421
6.94918
6.72471
6.73407
6.99741
7.33367
7.55244
7.63957
7.57589
7.44431
-7.46086
-6.97877
-6.47154
-5.54693
-4.74528
-4.65556
-5.01238
-6.08147
-7.39629
-9.09875
-10.3474
-11.2936
-11.5521
-11.4118
-10.723
-10.0444
-9.90487
-10.062
-10.6126
-10.9247
-11.0829
-10.7874
-10.2313
-9.29262
-8.36196
-7.80735
-7.43822
-7.30483
-6.93903
-6.38995
-5.49209
-4.5569
-3.90453
-3.42552
-3.25055
-3.15609
-3.1976
-2.96821
-2.53152
-1.75223
-0.932097
-0.381455
-0.0129789
0.0318538
-0.0466539
-0.320769
-0.390832
-0.329401
0.0602629
0.638684
1.49512
2.33105
2.86119
3.23418
3.40663
3.78451
4.32361
5.18246
6.05234
6.60875
6.95782
6.94718
6.82772
6.53493
6.57296
6.86677
7.605
8.38481
8.78712
8.94358
8.65964
8.25098
7.63466
7.4399
7.57136
8.26253
9.0145
9.30983
9.31226
8.78551
8.11469
7.19943
6.79814
6.80037
7.49464
8.30973
8.67377
8.85414
8.6727
8.64406
-9.16027
-7.88719
-7.74656
-5.51516
-3.35575
-3.54735
-3.54777
-5.68801
-7.23527
-10.8646
-12.2962
-14.1218
-13.927
-13.8455
-11.8759
-9.99931
-10.1606
-10.279
-12.1226
-12.5189
-13.2883
-12.6482
-12.1243
-10.2519
-8.44869
-8.09998
-7.68431
-8.42785
-8.02613
-7.66532
-6.03225
-4.32433
-3.70383
-2.96924
-3.22274
-3.16505
-4.02042
-3.74432
-3.45248
-1.96207
-0.39219
0.162047
0.803583
0.45085
0.338661
-0.790329
-0.892947
-1.22274
-0.564509
0.0108781
1.59279
3.11111
3.48324
3.89798
3.31658
3.74007
4.11193
5.70476
7.35256
7.87485
8.49665
7.97725
7.78474
6.46091
6.52716
6.58781
8.2447
9.99809
10.3391
10.8223
9.87795
9.36094
7.43692
7.2592
7.08097
8.88895
10.8233
11.0214
11.4022
10.0508
9.22698
6.70938
6.29034
5.86996
7.81775
9.93518
10.0595
10.5896
9.54944
10.1801
-12.4049
-7.1648
-12.032
-5.37939
1.41973
-2.71381
0.998894
-6.14769
-4.07526
-15.7943
-13.6771
-19.8584
-16.1377
-18.9974
-12.894
-7.01878
-10.4775
-8.01075
-15.716
-13.5749
-17.5227
-14.3411
-15.9581
-11.1109
-6.44016
-8.48832
-6.26043
-11.1994
-9.0537
-10.7721
-6.67961
-2.52526
-3.66686
-1.08955
-3.64251
-1.85878
-6.47211
-4.54278
-6.09904
-2.28608
1.61051
0.580065
3.05204
0.523598
2.1882
-2.73787
-1.06809
-3.53899
-1.07027
-2.06662
1.78165
5.54129
4.04351
5.99571
1.77897
3.76937
2.14144
6.14719
10.2728
8.9969
11.678
8.53575
10.37
4.38422
6.48841
4.00921
8.74434
13.644
11.6853
14.7556
10.4796
12.4957
4.72322
7.07795
3.72908
9.33204
15.131
12.4686
15.9851
10.5549
12.777
3.1961
5.78321
1.52813
7.89539
14.4295
10.8597
14.5852
8.01888
12.8743
-23.2367
8.11244
-32.9052
-5.45423
21.9385
-13.1787
21.1831
-19.8826
18.9446
-40.6482
-3.10792
-39.8536
-8.87281
-37.0557
-13.5837
9.40282
-19.3268
8.90527
-33.4881
-5.86296
-32.0232
-9.12409
-29.1003
-11.7157
5.24375
-15.0341
5.48385
-24.1727
-4.51692
-22.2466
-7.41594
6.9002
-8.98495
8.17794
-10.307
8.65943
-18.3453
-0.321996
-16.4774
-2.73043
10.7083
-4.04525
12.5013
-5.44156
13.5284
-14.1836
4.71929
-12.9685
3.41356
-11.1205
2.09813
15.5423
-0.364122
16.9768
-8.69705
9.00902
-7.94168
6.41697
20.9715
4.42084
23.2452
1.92811
24.2159
-9.34212
13.0497
-8.95821
9.00699
27.166
5.78952
29.2677
2.02051
29.7261
-12.5738
15.1098
-12.5135
9.49279
31.623
5.01803
33.4515
0.0393233
33.3236
-17.8391
15.1289
-18.1097
7.73286
33.4732
1.15485
33.401
-9.95886
22.8881
29002
28956.1
28909.7
28862.8
28815.4
28767.6
28719.4
28670.9
28622
28572.9
28523.6
28474.1
28424.4
28374.7
28324.9
0.846738
0.800954
0.749606
0.693631
0.634173
0.572425
0.509495
0.446308
0.383563
0.321721
0.26102
0.201507
0.143071
0.0854831
0.0284333
1.41798
1.34101
1.25439
1.15984
1.05944
0.955317
0.849416
0.743335
0.638254
0.534925
0.43371
0.334646
0.237505
0.141868
0.0471813
1.99986
1.89064
1.76704
1.63184
1.48836
1.33991
1.18944
1.03929
0.891132
0.745964
0.604215
0.465838
0.330421
0.197292
0.065601
2.5979
2.45464
2.29125
2.11209
1.9222
1.72647
1.52907
1.33319
1.14095
0.953532
0.771306
0.594038
0.42103
0.251267
0.0835271
3.21896
3.03879
2.83123
2.60307
2.36187
2.11464
1.86712
1.62336
1.38587
1.15583
0.933383
0.717935
0.508366
0.303203
0.100762
3.87216
3.6505
3.39195
3.10721
2.80763
2.50317
2.20139
1.90721
1.62326
1.35044
1.08839
0.835901
0.591257
0.352397
0.117071
4.56986
4.29928
3.97901
3.62633
3.25843
2.88918
2.52815
2.18083
1.84949
1.53422
1.23374
0.94596
0.66832
0.398031
0.132183
5.32936
4.99766
4.59842
4.16063
3.71062
3.26712
2.84137
2.43855
2.05963
1.70315
1.36633
1.04581
0.737983
0.439191
0.145799
6.1766
5.76287
5.25579
4.70668
4.15589
3.62722
3.1318
2.67248
2.24737
1.85238
1.48257
1.13291
0.798559
0.474918
0.157609
7.15566
6.62044
5.95442
5.25369
4.57815
3.95354
3.386
2.87221
2.40505
1.97642
1.57861
1.20465
0.848378
0.504284
0.167314
8.35578
7.60933
6.68812
5.77597
4.94911
4.22226
3.58617
3.02526
2.52416
2.06962
1.65074
1.25864
0.885977
0.526499
0.174665
9.98794
8.77297
7.41245
6.21352
5.22019
4.40002
3.71098
3.11842
2.59668
2.12712
1.69604
1.29314
0.910342
0.541037
0.179501
12.624
10.0814
7.97422
6.44505
5.31782
4.44644
3.73917
3.14072
2.61699
2.14606
1.71309
1.30746
0.921168
0.547774
0.181787
17.5296
10.9541
7.95813
6.27444
5.15916
4.32844
3.65845
3.08825
2.58446
2.127
1.70271
1.30238
0.919037
0.547066
0.181643
-0.18674
-0.562362
-0.944522
-1.33796
-1.74806
-2.18128
-2.6458
-3.15269
-3.7179
-4.3664
-5.14119
-6.125
-7.49912
-9.71961
-14.0852
-0.184358
-0.554903
-0.931009
-1.3166
-1.71597
-2.13394
-2.57612
-3.04919
-3.56113
-4.12119
-4.73807
-5.41002
-6.07797
-6.40856
-4.7727
-0.180694
-0.543557
-0.910865
-1.28563
-1.6709
-2.06973
-2.48493
-2.91862
-3.37084
-3.83635
-4.29651
-4.6977
-4.89104
-4.46253
-2.29428
-0.175995
-0.529095
-0.885499
-1.2473
-1.61636
-1.99408
-2.38087
-2.77513
-3.1712
-3.55502
-3.89573
-4.12976
-4.13575
-3.72442
-2.83771
-0.170516
-0.512311
-0.856341
-1.20387
-1.55575
-1.91208
-2.27156
-2.63034
-2.97993
-3.30338
-3.56883
-3.72029
-3.6698
-3.31639
-2.72485
-0.164497
-0.49395
-0.824708
-1.15736
-1.49199
-1.82784
-2.1627
-2.49189
-2.80672
-3.09175
-3.3208
-3.45123
-3.41383
-3.07359
-2.00396
-0.158149
-0.474656
-0.791715
-1.1094
-1.42731
-1.74423
-2.05771
-2.3634
-2.65414
-2.91877
-3.14094
-3.29876
-3.36787
-3.33716
-3.32343
-0.151644
-0.454951
-0.75824
-1.06124
-1.36325
-1.66294
-1.95808
-2.24525
-2.51963
-2.77513
-3.0055
-3.20783
-3.39102
-3.58878
-3.85204
-0.145118
-0.435233
-0.724923
-1.01369
-1.30072
-1.58473
-1.86392
-2.13593
-2.39817
-2.64883
-2.88931
-3.13008
-3.40384
-3.7947
-4.51631
-0.138668
-0.415785
-0.692204
-0.967297
-1.24021
-1.5098
-1.77467
-2.03331
-2.2847
-2.52949
-2.77272
-3.0293
-3.33515
-3.77072
-4.52685
-0.13236
-0.3968
-0.660366
-0.922363
-1.18194
-1.43808
-1.68965
-1.93567
-2.17574
-2.41113
-2.6467
-2.89416
-3.1762
-3.52393
-3.92228
-0.126239
-0.378399
-0.629583
-0.879058
-1.12599
-1.36944
-1.60843
-1.84207
-2.06994
-2.29253
-2.51228
-2.73488
-2.97144
-3.24178
-3.59207
-0.120331
-0.360655
-0.59995
-0.837471
-1.0724
-1.30383
-1.53083
-1.75241
-1.96769
-2.1758
-2.37572
-2.56579
-2.74303
-2.90394
-3.04422
-0.11465
-0.343606
-0.571515
-0.797637
-1.02117
-1.24125
-1.45691
-1.66706
-1.87033
-2.06462
-2.24586
-2.40549
-2.5258
-2.58026
-2.61182
-0.109201
-0.327262
-0.544287
-0.759555
-0.972293
-1.18167
-1.38674
-1.5864
-1.77913
-1.96236
-2.13087
-2.27238
-2.35413
-2.27233
-1.61883
-0.103983
-0.311616
-0.518248
-0.723184
-0.925697
-1.12501
-1.32026
-1.51049
-1.69443
-1.87021
-2.03449
-2.18069
-2.29586
-2.36129
-2.42028
-0.0989878
-0.296647
-0.493353
-0.688453
-0.88127
-1.0711
-1.25722
-1.43887
-1.61532
-1.78594
-1.95052
-2.11044
-2.27198
-2.4546
-2.70044
-0.0942062
-0.282322
-0.469543
-0.655264
-0.838864
-1.01972
-1.19721
-1.3708
-1.54019
-1.70575
-1.86966
-2.03896
-2.23331
-2.50384
-2.97816
-0.0896245
-0.268599
-0.446745
-0.623506
-0.798316
-0.970609
-1.13985
-1.30558
-1.46765
-1.6266
-1.78491
-1.94997
-2.14161
-2.41141
-2.89871
-0.085228
-0.255433
-0.424881
-0.593064
-0.759466
-0.923566
-1.08485
-1.24285
-1.39719
-1.54781
-1.69537
-1.8424
-1.99551
-2.16778
-2.36075
-0.0810005
-0.242775
-0.403868
-0.56382
-0.722166
-0.878423
-1.03209
-1.18259
-1.32925
-1.47103
-1.60609
-1.73052
-1.83598
-1.90963
-1.98764
-0.0769249
-0.230574
-0.383619
-0.535656
-0.68627
-0.835029
-0.981455
-1.12495
-1.26463
-1.39884
-1.52407
-1.63174
-1.69841
-1.64836
-1.18137
-0.0729835
-0.218776
-0.364046
-0.508443
-0.651618
-0.793206
-0.932804
-1.0699
-1.20372
-1.3328
-1.45413
-1.56135
-1.64176
-1.67651
-1.69152
-0.0691581
-0.207326
-0.345052
-0.482046
-0.618026
-0.752715
-0.885836
-1.01708
-1.14605
-1.27205
-1.39388
-1.50951
-1.61671
-1.71829
-1.84355
-0.0654305
-0.196169
-0.326543
-0.45632
-0.585289
-0.713268
-0.840122
-0.965796
-1.09036
-1.21411
-1.33784
-1.46345
-1.59545
-1.7435
-1.92515
-0.0617832
-0.18525
-0.308424
-0.431124
-0.553201
-0.674556
-0.795179
-0.91523
-1.03518
-1.15611
-1.28039
-1.41286
-1.56293
-1.74527
-1.96616
-0.0582004
-0.174522
-0.290611
-0.40633
-0.521577
-0.636308
-0.750589
-0.864687
-0.979256
-1.09573
-1.21715
-1.34996
-1.5079
-1.72015
-2.05078
-0.0546683
-0.163942
-0.273032
-0.381835
-0.490274
-0.598332
-0.706081
-0.813768
-0.921957
-1.03184
-1.1459
-1.26955
-1.41506
-1.61271
-1.95006
-0.0511756
-0.153477
-0.255634
-0.357562
-0.459202
-0.560529
-0.661574
-0.762456
-0.863429
-0.964966
-1.06792
-1.17389
-1.28591
-1.40815
-1.52879
-0.0477133
-0.143101
-0.238374
-0.333464
-0.428315
-0.522884
-0.617138
-0.711035
-0.804458
-0.897041
-0.987761
-1.07397
-1.14957
-1.2046
-1.25887
-0.0442742
-0.132792
-0.221221
-0.309506
-0.397592
-0.485421
-0.572913
-0.659904
-0.746019
-0.830345
-0.910653
-0.981366
-1.02744
-1.0015
-0.719317
-0.0408522
-0.122535
-0.204152
-0.285661
-0.367016
-0.44816
-0.528998
-0.609341
-0.688775
-0.766376
-0.840133
-0.905822
-0.955229
-0.976272
-0.98281
-0.037442
-0.112312
-0.18714
-0.261898
-0.336557
-0.411077
-0.485392
-0.559374
-0.63276
-0.705016
-0.775143
-0.841539
-0.902637
-0.961061
-1.04107
-0.034038
-0.102108
-0.170159
-0.238182
-0.306167
-0.374105
-0.441984
-0.509787
-0.577489
-0.64508
-0.712673
-0.780884
-0.85183
-0.93079
-1.02603
-0.0306352
-0.0919068
-0.153183
-0.214471
-0.275783
-0.337143
-0.398597
-0.460237
-0.522258
-0.58509
-0.649705
-0.718278
-0.795388
-0.889147
-1.00861
-0.0272284
-0.0816932
-0.136184
-0.190723
-0.24534
-0.300087
-0.35505
-0.410389
-0.466426
-0.523814
-0.583928
-0.649693
-0.727318
-0.829584
-0.981454
-0.023813
-0.0714529
-0.119137
-0.166899
-0.214783
-0.262853
-0.31121
-0.360026
-0.409621
-0.4606
-0.514169
-0.572824
-0.642072
-0.735509
-0.895713
-0.0203849
-0.0611739
-0.102022
-0.142972
-0.184074
-0.225394
-0.267022
-0.309092
-0.351818
-0.395542
-0.440824
-0.488556
-0.539966
-0.595005
-0.638097
-0.0169409
-0.0508461
-0.0848227
-0.11892
-0.153192
-0.187696
-0.222499
-0.257673
-0.293287
-0.329359
-0.365725
-0.401693
-0.435281
-0.462742
-0.490929
-0.0134779
-0.0404611
-0.0675272
-0.0947311
-0.122127
-0.149767
-0.177693
-0.205922
-0.234406
-0.262929
-0.290853
-0.316448
-0.334796
-0.329927
-0.239469
-0.0099933
-0.0300114
-0.0501239
-0.0703922
-0.0908735
-0.111617
-0.132652
-0.153968
-0.175468
-0.196873
-0.217552
-0.236202
-0.250382
-0.256507
-0.257755
-0.00648447
-0.0194892
-0.0326012
-0.0458896
-0.0594186
-0.0732423
-0.0873933
-0.101863
-0.116566
-0.131284
-0.145614
-0.159029
-0.171511
-0.186436
-0.223251
-0.00294851
-0.00888608
-0.0149452
-0.021205
-0.0277408
-0.0346196
-0.0418911
-0.0495731
-0.0576268
-0.0659282
-0.0742664
-0.0824722
-0.0908974
-0.101117
-0.112727
0.000617777
0.00180772
0.00286063
0.00368551
0.00419259
0.00429571
0.00391712
0.00299686
0.00150929
-0.000513498
-0.00296716
-0.00572814
-0.00899356
-0.01479
-0.0357086
0.00421777
0.0126026
0.0208346
0.0288102
0.0364233
0.0435646
0.0501218
0.0559819
0.061041
0.0652311
0.0685848
0.0714
0.0747107
0.082083
0.108311
0.00785492
0.0235093
0.038996
0.0541994
0.0689975
0.0832574
0.0968303
0.109544
0.1212
0.131586
0.140548
0.148216
0.155636
0.165905
0.181759
0.0115324
0.0345378
0.057363
0.0798823
0.10196
0.123445
0.144154
0.163861
0.182264
0.198961
0.213444
0.225233
0.234624
0.24589
0.279443
0.015253
0.0456966
0.0759508
0.105883
0.13535
0.164186
0.192192
0.219101
0.244534
0.267903
0.288246
0.303941
0.312349
0.310436
0.304489
0.0190186
0.0569916
0.0947702
0.132219
0.169191
0.20552
0.241007
0.275385
0.308259
0.338974
0.366309
0.387734
0.397278
0.377816
0.264248
0.0228304
0.0684264
0.113826
0.158895
0.20349
0.247454
0.290609
0.33273
0.373505
0.412419
0.448507
0.4798
0.502386
0.510577
0.512171
0.0266887
0.0800016
0.13312
0.185911
0.238239
0.289964
0.340942
0.391026
0.44006
0.487852
0.534066
0.577933
0.617526
0.647945
0.652393
0.0305932
0.0917161
0.152647
0.213258
0.273419
0.333005
0.391909
0.450065
0.507496
0.564404
0.621285
0.679057
0.739069
0.803379
0.881654
0.0345433
0.103568
0.172404
0.240926
0.309008
0.376533
0.44341
0.50962
0.575312
0.640996
0.707915
0.778648
0.857658
0.949148
1.03448
0.0385379
0.115553
0.192385
0.268908
0.344995
0.420523
0.495386
0.569548
0.643147
0.716751
0.791924
0.872514
0.967609
1.09922
1.32806
0.0425757
0.127669
0.212585
0.2972
0.381381
0.464984
0.54786
0.629879
0.710995
0.791435
0.872196
0.956328
1.05223
1.18181
1.39808
0.0466551
0.139911
0.233
0.325801
0.418176
0.509959
0.600941
0.690849
0.779325
0.865914
0.95015
1.03199
1.11349
1.20424
1.33306
0.0507734
0.152271
0.253619
0.354704
0.45539
0.555499
0.654776
0.752825
0.848979
0.942046
1.02979
1.1079
1.16834
1.20027
1.22556
0.0549264
0.164739
0.274425
0.38389
0.493012
0.601625
0.709473
0.816125
0.920787
1.02189
1.11614
1.19609
1.24303
1.20093
0.854354
0.0591083
0.177295
0.295389
0.413319
0.530994
0.648289
0.765008
0.880815
0.995076
1.10651
1.21245
1.30722
1.37957
1.41306
1.42909
0.0633117
0.189918
0.31647
0.442929
0.569245
0.695358
0.821182
0.946584
1.07133
1.19497
1.31652
1.43392
1.54311
1.63734
1.70163
0.0675276
0.202579
0.337619
0.472641
0.607642
0.742633
0.877653
1.01281
1.14837
1.28489
1.4235
1.56633
1.71706
1.88242
2.084
0.0717466
0.215249
0.358782
0.50237
0.64605
0.789891
0.934031
1.07876
1.22474
1.37336
1.52757
1.69326
1.88086
2.10237
2.33188
0.0759592
0.2279
0.379908
0.532036
0.684349
0.836945
0.989998
1.14386
1.29928
1.45796
1.62368
1.80499
2.02111
2.31679
2.80894
0.0801567
0.240504
0.400952
0.561575
0.722452
0.883683
1.04541
1.20787
1.37156
1.53766
1.70898
1.89255
2.10612
2.3948
2.8731
0.0843307
0.253036
0.421875
0.590936
0.76031
0.930077
1.1003
1.27101
1.44218
1.61374
1.78577
1.95929
2.13897
2.34112
2.60389
0.088474
0.265476
0.442642
0.62008
0.797892
0.976152
1.15486
1.33384
1.51252
1.68949
1.86154
2.02174
2.15624
2.24535
2.33031
0.0925791
0.277802
0.463218
0.648962
0.835159
1.02191
1.20922
1.39687
1.58404
1.76865
1.94553
2.10205
2.20502
2.15247
1.54888
0.0966391
0.28999
0.483565
0.677524
0.872038
1.06728
1.26335
1.46021
1.65735
1.85317
2.04365
2.21954
2.36179
2.44226
2.4995
0.100648
0.302022
0.503641
0.705695
0.908408
1.11205
1.31693
1.52336
1.73155
1.94139
2.15191
2.36038
2.56145
2.74817
2.91287
0.1046
0.313881
0.523412
0.733402
0.944124
1.15595
1.36942
1.58526
1.80461
2.02914
2.26156
2.50635
2.77106
3.06936
3.43771
0.108497
0.325562
0.542858
0.760593
0.979063
1.19871
1.42023
1.64473
1.87404
2.11138
2.36262
2.63847
2.95731
3.3419
3.76452
0.112342
0.337078
0.561993
0.787263
1.01317
1.24016
1.46897
1.70083
1.93787
2.18396
2.44657
2.7407
3.0979
3.588
4.38493
0.116148
0.348466
0.580872
0.813482
1.04651
1.28033
1.51558
1.75332
1.99539
2.24505
2.50859
2.79912
3.14615
3.62098
4.40691
0.119935
0.359788
0.599601
0.839398
1.07928
1.31948
1.56043
1.80279
2.04761
2.29647
2.55184
2.81825
3.10564
3.43789
3.85334
0.123734
0.371132
0.618332
0.865238
1.11181
1.35811
1.60427
1.85052
2.097
2.34333
2.5874
2.82278
3.03392
3.19699
3.37507
0.127578
0.382605
0.637254
0.891293
1.14452
1.3968
1.64802
1.89806
2.14647
2.39171
2.62896
2.84412
2.99553
2.94562
2.14299
0.131508
0.394333
0.656587
0.91789
1.17787
1.4362
1.69257
1.94669
2.1981
2.44561
2.6858
2.90967
3.09691
3.21691
3.32987
0.135568
0.40645
0.676566
0.945383
1.21235
1.47693
1.73865
1.99717
2.25241
2.50455
2.75392
3.00061
3.24491
3.49306
3.77558
0.1398
0.419089
0.69743
0.974137
1.24846
1.51962
1.78691
2.04988
2.30881
2.56537
2.82384
3.09315
3.39016
3.74525
4.21688
0.144243
0.432375
0.719412
1.00452
1.28673
1.56497
1.83812
2.10537
2.36682
2.62479
2.88616
3.16639
3.495
3.91645
4.44706
0.148928
0.44641
0.742714
1.03689
1.32774
1.6138
1.89339
2.16483
2.42719
2.68179
2.9353
3.20597
3.53529
4.01173
4.82677
0.15387
0.461249
0.767473
1.07153
1.37203
1.66709
1.95426
2.23055
2.4929
2.73946
2.97246
3.20472
3.47333
3.87177
4.64737
0.159057
0.476876
0.793716
1.1086
1.42005
1.72583
2.02263
2.30588
2.56953
2.80646
3.01005
3.17815
3.32111
3.46978
3.63231
0.164444
0.493167
0.821287
1.14802
1.47197
1.79073
2.10037
2.39476
2.66463
2.89655
3.07219
3.16895
3.16483
3.05804
2.97411
0.16994
0.509859
0.84979
1.18934
1.52745
1.86191
2.18865
2.50062
2.78603
3.02564
3.189
3.22972
3.07973
2.63031
1.58748
0.1754
0.526525
0.878523
1.23162
1.58541
1.93839
2.28711
2.62486
2.93916
3.20761
3.3909
3.42285
3.20243
2.61455
1.6814
0.180629
0.542564
0.90646
1.27337
1.64389
2.01776
2.39315
2.76533
3.12407
3.44863
3.69778
3.79114
3.58018
2.83845
1.49724
0.185382
0.55722
0.932266
1.31257
1.69999
2.09602
2.50136
2.91506
3.33267
3.74195
4.11273
4.37065
4.32633
3.47851
0.495817
0.189379
0.569627
0.954384
1.34676
1.75005
2.16776
2.60371
3.06204
3.54698
4.06192
4.60591
5.1599
5.63027
5.60099
3.19023
0.192331
0.578878
0.971168
1.37333
1.79002
2.22675
2.69046
3.19051
3.74044
4.36169
5.09201
6.00695
7.28085
9.37748
13.7199
13.3685
8.9454
6.8738
5.64417
4.77343
4.08384
3.49967
2.98377
2.51532
2.0813
1.67281
1.28325
0.907386
0.540831
0.179686
2.46837
5.05602
5.1818
4.77896
4.27779
3.77802
3.30177
2.85176
2.42565
2.01991
1.63091
1.2552
0.889552
0.530952
0.176524
-0.343488
2.87611
3.85673
3.98187
3.78102
3.45575
3.08557
2.70309
2.32178
1.94685
1.57973
1.22011
0.866787
0.518155
0.172396
0.588908
2.25096
3.1256
3.411
3.37051
3.16454
2.87784
2.55355
2.21343
1.86829
1.5233
1.1806
0.84073
0.503338
0.167589
1.18496
2.17251
2.80349
3.06631
3.07476
2.92928
2.69613
2.41495
2.1085
1.78959
1.46521
1.13908
0.812917
0.487359
0.162378
1.61939
2.34155
2.7369
2.89815
2.88579
2.7548
2.54771
2.29384
2.01219
1.71461
1.4083
1.09752
0.784654
0.470958
0.157003
2.67981
2.73738
2.83273
2.85043
2.77908
2.63308
2.43169
2.19196
1.92687
1.64564
1.35445
1.05737
0.756935
0.454717
0.151655
3.23046
3.10682
2.98234
2.86444
2.72411
2.54973
2.34223
2.10761
1.85272
1.58352
1.30465
1.0195
0.730425
0.439045
0.146471
4.16192
3.47669
3.12725
2.89392
2.69269
2.48927
2.27153
2.03729
1.78845
1.52806
1.25917
0.984316
0.705488
0.424183
0.141536
4.33567
3.61321
3.19142
2.901
2.66269
2.43869
2.2122
1.97706
1.73213
1.47846
1.21778
0.951856
0.682246
0.410238
0.136889
4.01892
3.5408
3.16425
2.8718
2.62265
2.38974
2.15883
1.92356
1.68184
1.43369
1.17999
0.921921
0.660644
0.397208
0.132537
3.82331
3.39773
3.07856
2.81244
2.57124
2.33934
2.10842
1.87448
1.63597
1.39272
1.1452
0.894184
0.64052
0.385023
0.128458
3.44071
3.18067
2.95594
2.73568
2.5133
2.28819
2.06006
1.82852
1.59336
1.35467
1.1128