/*--------------------------------*- C++ -*----------------------------------*\
| =========                 |                                                 |
| \\      /  F ield         | OpenFOAM: The Open Source CFD Toolbox           |
|  \\    /   O peration     | Version:  5.x                                   |
|   \\  /    A nd           | Web:      www.OpenFOAM.org                      |
|    \\/     M anipulation  |                                                 |
\*---------------------------------------------------------------------------*/
FoamFile
{
    version     2.0;
    format      ascii;
    class       volScalarField;
    location    "1.9";
    object      gradTx;
}
// * * * * * * * * * * * * * * * * * * * * * * * * * * * * * * * * * * * * * //

dimensions      [0 -1 0 1 0 0 0];

internalField   nonuniform List<scalar> 
6300
(
-50.362
-50.3254
-50.2519
-50.1414
-49.9935
-49.8081
-49.5847
-49.3235
-49.0246
-48.6888
-48.317
-47.9109
-47.4725
-47.0041
-46.5082
-50.3983
-50.3617
-50.2885
-50.1783
-50.0308
-49.8455
-49.6222
-49.3608
-49.0613
-48.7243
-48.3509
-47.9428
-47.5021
-47.0314
-46.5333
-50.4706
-50.4344
-50.3616
-50.2521
-50.1053
-49.9206
-49.6975
-49.4356
-49.135
-48.7959
-48.4193
-48.007
-47.5614
-47.0857
-46.5831
-50.5788
-50.543
-50.4711
-50.3628
-50.2172
-50.0336
-49.8111
-49.5489
-49.2467
-48.9045
-48.523
-48.1041
-47.6506
-47.1665
-46.6562
-50.7223
-50.6872
-50.6168
-50.5102
-50.3667
-50.185
-49.9639
-49.7019
-49.3981
-49.0519
-48.6638
-48.2354
-47.7701
-47.2731
-46.7507
-50.9004
-50.8664
-50.798
-50.6942
-50.554
-50.3756
-50.157
-49.8963
-49.5915
-49.2409
-48.8444
-48.4032
-47.9211
-47.4048
-46.8636
-51.1121
-51.0796
-51.014
-50.9143
-50.779
-50.6057
-50.3919
-50.1345
-49.83
-49.4756
-49.0694
-48.6115
-48.1058
-47.5611
-46.9907
-51.3558
-51.3253
-51.2637
-51.1697
-51.0414
-50.876
-50.6701
-50.4191
-50.1181
-49.7618
-49.3455
-48.8672
-48.3294
-47.7426
-47.1264
-51.6295
-51.6016
-51.5452
-51.4589
-51.3404
-51.1865
-50.9927
-50.7534
-50.4612
-50.1075
-49.6835
-49.1819
-48.6017
-47.9533
-47.2643
-51.9306
-51.906
-51.8562
-51.7797
-51.6742
-51.5362
-51.3606
-51.1402
-50.8653
-50.5232
-50.0985
-49.575
-48.942
-48.2043
-47.3981
-52.2557
-52.2352
-52.1934
-52.1291
-52.0402
-51.9231
-51.7727
-51.581
-51.3362
-51.0212
-50.6118
-50.0774
-49.3863
-48.5236
-47.5267
-52.6009
-52.5849
-52.5525
-52.5027
-52.4337
-52.3429
-52.2256
-52.0744
-51.877
-51.613
-51.2497
-50.7361
-50.0019
-48.9767
-47.6643
-52.9616
-52.9506
-52.9285
-52.8948
-52.8487
-52.7886
-52.712
-52.6136
-52.4838
-52.3038
-52.0375
-51.6149
-50.908
-49.7165
-47.87
-53.3327
-53.3269
-53.3155
-53.2987
-53.277
-53.2505
-53.2197
-53.1838
-53.1402
-53.0806
-52.9811
-52.7775
-52.2979
-51.1109
-48.3642
-53.7089
-53.7082
-53.7073
-53.7072
-53.7094
-53.7164
-53.7319
-53.7612
-53.8123
-53.8965
-54.0283
-54.2155
-54.3946
-54.0645
-50.2515
-46.0321
-45.5809
-45.1136
-44.6303
-44.1307
-43.6141
-43.0799
-42.5272
-41.9558
-41.3657
-40.7575
-40.1326
-39.4928
-38.8406
-38.1786
-37.5101
-36.8382
-36.1661
-35.4973
-34.835
-34.1826
-33.5432
-32.9198
-32.3155
-31.7326
-31.1737
-30.6404
-30.1346
-29.6574
-29.2097
-28.7921
-28.405
-28.0483
-27.7218
-27.4252
-27.158
-26.9197
-26.7098
-26.5277
-26.3727
-26.2444
-26.1423
-26.0658
-26.0146
-25.9884
-25.9874
-26.0116
-26.0615
-26.1376
-26.2405
-26.3709
-26.5293
-26.7163
-26.932
-27.1764
-27.4495
-27.7505
-28.079
-28.4338
-28.8139
-29.2178
-29.6442
-30.0916
-30.5585
-31.0434
-31.5447
-32.061
-32.5909
-33.1327
-33.6849
-34.2462
-34.815
-35.39
-35.9699
-36.5536
-37.14
-37.7278
-38.316
-38.9034
-39.4891
-40.0721
-40.6513
-41.2259
-41.795
-42.3575
-42.9123
-43.4578
-43.9923
-44.5139
-45.0203
-46.0557
-45.6039
-45.1365
-44.6536
-44.1549
-43.6394
-43.1062
-42.5542
-41.9827
-41.3917
-40.7817
-40.154
-39.5108
-38.8546
-38.1883
-37.5151
-36.8385
-36.1617
-35.4881
-34.8211
-34.1641
-33.5203
-32.8929
-32.2848
-31.6987
-31.1369
-30.6014
-30.0938
-29.6153
-29.1668
-28.7489
-28.3617
-28.0053
-27.6793
-27.3834
-27.117
-26.8795
-26.6704
-26.4891
-26.335
-26.2075
-26.106
-26.03
-25.9791
-25.953
-25.9516
-25.9753
-26.0244
-26.0995
-26.2015
-26.3311
-26.4889
-26.6755
-26.8911
-27.1359
-27.4096
-27.7117
-28.0415
-28.398
-28.7799
-29.1859
-29.6144
-30.064
-30.533
-31.02
-31.5234
-32.0419
-32.5738
-33.1178
-33.6721
-34.2354
-34.8061
-35.3829
-35.9645
-36.5498
-37.1377
-37.7271
-38.3168
-38.9058
-39.4929
-40.0772
-40.6577
-41.2336
-41.8041
-42.3683
-42.9251
-43.4731
-44.0105
-44.5352
-45.045
-46.1023
-45.6489
-45.1813
-44.6996
-44.203
-43.6902
-43.1595
-42.609
-42.0377
-41.4449
-40.8312
-40.198
-39.5476
-38.8831
-38.2078
-37.5254
-36.8392
-36.1528
-35.4696
-34.7931
-34.1268
-33.4741
-32.8384
-32.2228
-31.6301
-31.0627
-30.5227
-30.0116
-29.5305
-29.0804
-28.6618
-28.2746
-27.9189
-27.5941
-27.2996
-27.0348
-26.799
-26.5916
-26.412
-26.2595
-26.1336
-26.0336
-25.9588
-25.9085
-25.8825
-25.8806
-25.903
-25.9504
-26.0235
-26.1235
-26.2512
-26.4077
-26.5934
-26.8089
-27.0543
-27.3293
-27.6335
-27.966
-28.3259
-28.7117
-29.1219
-29.5548
-30.0087
-30.482
-30.9731
-31.4808
-32.0035
-32.5398
-33.0881
-33.6467
-34.214
-34.7886
-35.3689
-35.9538
-36.5423
-37.1334
-37.7259
-38.3187
-38.9107
-39.5006
-40.0874
-40.6703
-41.2487
-41.8219
-42.3894
-42.9502
-43.5032
-44.0464
-44.5777
-45.0944
-46.1701
-45.714
-45.2462
-44.7668
-44.2744
-43.7667
-43.2409
-42.6939
-42.1234
-41.5283
-40.9088
-40.2666
-39.6048
-38.9272
-38.238
-37.5411
-36.8404
-36.1394
-35.4417
-34.7508
-34.0702
-33.4038
-32.7553
-32.1281
-31.5254
-30.9496
-30.4028
-29.8864
-29.4017
-28.9493
-28.5297
-28.1429
-27.7885
-27.4658
-27.1737
-26.9115
-26.6783
-26.4735
-26.2964
-26.1465
-26.0232
-25.9256
-25.8528
-25.8038
-25.778
-25.7751
-25.7954
-25.8398
-25.9096
-26.006
-26.1307
-26.2848
-26.4691
-26.6843
-26.9305
-27.2075
-27.5149
-27.8518
-28.217
-28.609
-29.0257
-29.4653
-29.9258
-30.4055
-30.9029
-31.4168
-31.9459
-32.4887
-33.0436
-33.6088
-34.1824
-34.7627
-35.3483
-35.938
-36.5311
-37.1268
-37.724
-38.3217
-38.9183
-39.5125
-40.103
-40.6892
-41.2708
-41.8475
-42.4195
-42.9862
-43.5467
-44.099
-44.6406
-45.1683
-46.2559
-45.7956
-45.3278
-44.8524
-44.3675
-43.8693
-43.3526
-42.8125
-42.2446
-41.6467
-41.0189
-40.3635
-39.6849
-38.9883
-38.2791
-37.5624
-36.842
-36.1216
-35.4044
-34.6937
-33.9935
-33.308
-32.6417
-31.9986
-31.3823
-30.7952
-30.2394
-29.7162
-29.2266
-28.7714
-28.351
-27.9651
-27.6131
-27.2937
-27.0055
-26.7471
-26.5174
-26.3159
-26.1422
-25.9959
-25.8764
-25.7826
-25.7131
-25.6663
-25.6411
-25.6368
-25.6539
-25.6935
-25.7577
-25.8486
-25.9684
-26.1189
-26.3011
-26.5157
-26.7629
-27.0426
-27.3543
-27.6973
-28.0702
-28.4709
-28.8971
-29.3461
-29.8157
-30.3038
-30.8093
-31.3313
-31.8687
-32.4204
-32.9846
-33.5591
-34.1414
-34.7294
-35.3217
-35.9174
-36.5162
-37.1178
-37.7215
-38.3259
-38.9292
-39.5293
-40.1247
-40.7146
-41.2993
-41.8797
-42.4568
-43.0309
-43.6015
-44.1666
-44.723
-45.2667
-46.355
-45.8878
-45.4199
-44.9516
-44.4798
-43.9981
-43.4981
-42.9708
-42.409
-41.8083
-41.1687
-40.494
-39.7909
-39.0675
-38.3314
-37.5889
-36.844
-36.0995
-35.3578
-34.6218
-33.8958
-33.185
-32.495
-31.8311
-31.1973
-30.5963
-30.0295
-29.498
-29.0025
-28.544
-28.1229
-27.7391
-27.3913
-27.0774
-26.7949
-26.5418
-26.3166
-26.119
-25.9491
-25.8073
-25.6931
-25.6052
-25.5413
-25.4985
-25.4747
-25.4685
-25.4805
-25.5126
-25.568
-25.6502
-25.7627
-25.9079
-26.0871
-26.3008
-26.5491
-26.832
-27.1493
-27.5003
-27.8837
-28.2967
-28.736
-29.1979
-29.6791
-30.1776
-30.6924
-31.2237
-31.7713
-32.3344
-32.9111
-33.4982
-34.0922
-34.6901
-35.2902
-35.8924
-36.4973
-37.1059
-37.7179
-38.3317
-38.9445
-39.5527
-40.1539
-40.7472
-41.3338
-41.9163
-42.4978
-43.0802
-43.6637
-44.246
-44.823
-45.3892
-46.4597
-45.981
-45.5124
-45.0556
-44.606
-44.1532
-43.6827
-43.1789
-42.6291
-42.0259
-41.3691
-40.6654
-39.9263
-39.165
-38.3932
-37.6189
-36.8455
-36.0736
-35.3031
-34.5359
-33.7765
-33.0322
-32.3111
-31.6205
-30.9655
-30.3483
-29.7693
-29.2282
-28.7257
-28.2631
-27.8418
-27.4617
-27.1211
-26.8162
-26.5427
-26.2969
-26.0768
-25.8827
-25.7163
-25.5795
-25.4727
-25.3941
-25.3395
-25.3041
-25.2834
-25.2748
-25.2788
-25.2988
-25.3401
-25.4089
-25.5106
-25.6485
-25.8239
-26.0366
-26.286
-26.5724
-26.8961
-27.2574
-27.6549
-28.0852
-28.5429
-29.0221
-29.518
-30.028
-30.5523
-31.0928
-31.6517
-32.2291
-32.8228
-33.4275
-34.0374
-34.6476
-35.2559
-35.8633
-36.4731
-37.0888
-37.7115
-38.339
-38.966
-39.5861
-40.1943
-40.7893
-41.3738
-41.954
-42.5369
-43.1276
-43.7272
-44.3327
-44.9382
-45.5355
-46.5585
-46.0592
-45.5879
-45.1491
-44.7368
-44.3338
-43.915
-43.4533
-42.926
-42.3205
-41.6369
-40.8877
-40.0936
-39.2776
-38.4588
-37.6477
-36.8451
-36.0458
-35.244
-34.4388
-33.6358
-32.8462
-32.0835
-31.3591
-30.6797
-30.0459
-29.4547
-28.9034
-28.3919
-27.9234
-27.5016
-27.1281
-26.8
-26.5105
-26.2512
-26.0154
-25.8001
-25.6071
-25.4415
-25.3091
-25.2124
-25.1488
-25.1109
-25.0893
-25.0752
-25.0636
-25.0548
-25.0548
-25.0732
-25.121
-25.2069
-25.3357
-25.5076
-25.7199
-25.9705
-26.2595
-26.5893
-26.9627
-27.3795
-27.8347
-28.3192
-28.8227
-29.3369
-29.8583
-30.3892
-30.9359
-31.5055
-32.1009
-32.7186
-33.3495
-33.9823
-34.6079
-35.2229
-35.8308
-36.4406
-37.0615
-37.6982
-38.3469
-38.9973
-39.6363
-40.2536
-40.846
-41.4196
-41.9874
-42.5645
-43.1617
-43.7816
-44.4191
-45.0643
-45.7055
-46.6338
-46.0968
-45.6165
-45.2044
-44.8541
-44.537
-44.209
-43.822
-43.3357
-42.7277
-41.9993
-41.1748
-40.2926
-39.3944
-38.5133
-37.6642
-36.8402
-36.0217
-35.1901
-34.3387
-33.4759
-32.6219
-31.8009
-31.0333
-30.3285
-29.6823
-29.0832
-28.5216
-27.9967
-27.5166
-27.0924
-26.7297
-26.424
-26.1617
-25.9264
-25.705
-25.492
-25.2925
-25.1197
-24.9879
-24.905
-24.8669
-24.8595
-24.8643
-24.8642
-24.8489
-24.8188
-24.7848
-24.7648
-24.7786
-24.8419
-24.9615
-25.1335
-25.3488
-25.6003
-25.8882
-26.2203
-26.6061
-27.0494
-27.5423
-28.0685
-28.6082
-29.1459
-29.6755
-30.2034
-30.7463
-31.3223
-31.9407
-32.5956
-33.2689
-33.9377
-34.5837
-35.2
-35.7957
-36.3918
-37.0116
-37.6672
-38.3523
-39.0448
-39.7175
-40.3484
-40.9297
-41.4733
-42.007
-42.5628
-43.1628
-43.8103
-44.4939
-45.1959
-45.8988
-46.6597
-46.0524
-45.5468
-45.1705
-44.9233
-44.7558
-44.588
-44.3336
-43.9206
-43.308
-42.5002
-41.545
-40.5146
-39.4865
-38.522
-37.6449
-36.8276
-36.0167
-35.165
-34.2552
-33.3039
-32.3503
-31.4417
-30.6175
-29.8934
-29.2514
-28.6579
-28.0874
-27.5375
-27.0301
-26.5949
-26.2499
-25.9858
-25.7744
-25.5823
-25.3829
-25.165
-24.9402
-24.7393
-24.597
-24.5337
-24.5414
-24.5913
-24.6471
-24.6756
-24.6562
-24.589
-24.4953
-24.4085
-24.3656
-24.3965
-24.5123
-24.6977
-24.9263
-25.1781
-25.4537
-25.7743
-26.1675
-26.648
-27.2026
-27.7985
-28.3972
-28.967
-29.4952
-29.9964
-30.5094
-31.0782
-31.7281
-32.4465
-33.1949
-33.9262
-34.6021
-35.2071
-35.7599
-36.309
-36.9098
-37.594
-38.3466
-39.1207
-39.8588
-40.5142
-41.0674
-41.541
-41.9943
-42.497
-43.0951
-43.7868
-44.5415
-45.3256
-46.1153
-46.5982
-45.8614
-45.2903
-44.9502
-44.8774
-44.9749
-45.0915
-45.0734
-44.793
-44.1695
-43.2134
-42.0235
-40.7334
-39.487
-38.4049
-37.5395
-36.8058
-36.0707
-35.2241
-34.2315
-33.1354
-32.0143
-30.9613
-30.0578
-29.3405
-28.7508
-28.2003
-27.6238
-27.0178
-26.4399
-25.9679
-25.6544
-25.4724
-25.3598
-25.2495
-25.088
-24.8486
-24.5542
-24.2751
-24.0929
-24.0611
-24.1556
-24.3154
-24.47
-24.5568
-24.5328
-24.3983
-24.1965
-23.9895
-23.8471
-23.8297
-23.9634
-24.2005
-24.4709
-24.7221
-24.9552
-25.2245
-25.6036
-26.1406
-26.8039
-27.5253
-28.2279
-28.8487
-29.3543
-29.7729
-30.1924
-30.7177
-31.4171
-32.2545
-33.1455
-33.9945
-34.7229
-35.2894
-35.7293
-36.152
-36.688
-37.422
-38.31
-39.248
-40.1191
-40.8267
-41.3195
-41.6376
-41.9103
-42.2932
-42.8923
-43.6719
-44.5464
-45.4467
-46.3521
-46.3895
-45.4316
-44.7009
-44.3447
-44.5861
-45.1659
-45.7885
-46.191
-46.159
-45.51
-44.2634
-42.646
-40.8894
-39.2511
-37.976
-37.2448
-36.7861
-36.2854
-35.4935
-34.3571
-33.0033
-31.5807
-30.2657
-29.2306
-28.6045
-28.1941
-27.7806
-27.2032
-26.4579
-25.6979
-25.1134
-24.8698
-24.86
-24.9426
-24.9912
-24.9059
-24.6122
-24.1471
-23.672
-23.373
-23.4075
-23.6768
-24.0476
-24.3913
-24.5983
-24.5696
-24.3055
-23.9058
-23.4786
-23.1491
-23.0463
-23.2661
-23.6563
-24.0437
-24.2929
-24.405
-24.5174
-24.8131
-25.4517
-26.3225
-27.2794
-28.1772
-28.8966
-29.3391
-29.5486
-29.7234
-30.107
-30.9076
-31.9859
-33.1567
-34.237
-35.0768
-35.5542
-35.7234
-35.8318
-36.1809
-37.0282
-38.2013
-39.4714
-40.6147
-41.4482
-41.8228
-41.7992
-41.6671
-41.7775
-42.4291
-43.4197
-44.5134
-45.5599
-46.5881
-45.9026
-44.6743
-43.5721
-42.8787
-43.8078
-45.2954
-46.8026
-47.9341
-48.4137
-47.7108
-45.8472
-43.4691
-40.8753
-38.4921
-36.764
-36.5578
-36.8269
-36.9199
-36.2593
-34.7959
-32.9706
-30.9925
-29.1676
-27.8146
-27.5582
-27.6423
-27.5973
-27.0247
-25.9199
-24.7036
-23.7683
-23.7493
-24.1148
-24.575
-24.9262
-25.0244
-24.6232
-23.7549
-22.8159
-22.1736
-22.4162
-23.0527
-23.8194
-24.5104
-24.9799
-24.9459
-24.4087
-23.6552
-22.8278
-22.1252
-21.7989
-22.3241
-23.1168
-23.8163
-24.0617
-23.8548
-23.547
-23.5292
-24.429
-25.7174
-27.1191
-28.3841
-29.3434
-29.66
-29.3747
-28.9539
-28.8961
-29.9985
-31.584
-33.2985
-34.8257
-35.9529
-36.2627
-35.8052
-35.1648
-34.9562
-36.1652
-37.9527
-39.8772
-41.5562
-42.73
-42.8994
-42.1165
-41.0745
-40.4819
-41.4773
-43.0186
-44.5476
-45.6988
-46.701
-44.6217
-43.7351
-41.8544
-39.0757
-42.2247
-45.3963
-48.3573
-50.616
-52.3709
-51.5831
-48.172
-44.6029
-40.5579
-36.7898
-33.3605
-35.1864
-37.1217
-38.6398
-38.1814
-35.7559
-33.1585
-30.1839
-27.3901
-24.8199
-26.0222
-27.2768
-28.174
-27.6134
-25.5429
-23.3052
-21.1042
-22.0757
-23.2338
-24.3653
-25.2261
-25.8631
-25.3073
-23.4655
-21.5333
-19.7007
-20.8586
-22.2419
-23.701
-24.9492
-26.0877
-26.0475
-24.8244
-23.5116
-21.9983
-20.5603
-19.326
-20.9976
-22.7121
-24.2437
-24.4824
-23.4505
-22.1598
-20.9243
-22.8476
-24.9496
-27.1565
-29.0315
-30.7162
-30.8482
-29.3964
-27.6624
-26.0147
-28.3943
-30.9967
-33.7101
-35.9906
-38.0061
-38.0763
-36.1505
-33.8761
-31.69
-34.4693
-37.5067
-40.6362
-43.225
-45.4578
-45.3468
-42.8065
-39.8342
-36.8992
-39.739
-42.6343
-45.1254
-46.0513
-46.0409
-39.6497
-44.2267
-41.4296
-26.7367
-40.6091
-45.8004
-50.9232
-54.0231
-59.9896
-59.233
-50.7241
-46.4219
-39.8421
-34.5996
-22.3897
-33.6579
-38.0173
-43.2062
-42.9363
-36.9639
-33.8901
-29.115
-25.2913
-16.393
-24.4111
-27.4266
-30.8505
-30.3767
-25.4072
-21.8547
-13.872
-20.134
-22.3919
-24.5458
-25.8493
-28.42
-27.844
-23.3072
-20.1078
-12.9221
-18.9768
-21.3229
-23.8871
-25.547
-28.8937
-28.8534
-25.37
-23.6578
-21.061
-18.7029
-12.6694
-19.6098
-22.5715
-26.5338
-26.7333
-23.4198
-20.6936
-13.7715
-21.0094
-24.0312
-27.6725
-29.9537
-34.3252
-34.3179
-29.8247
-26.2468
-17.3343
-26.4694
-30.25
-34.7453
-37.5376
-42.8605
-42.764
-36.9982
-32.4599
-21.2739
-32.4014
-36.9278
-42.1737
-45.4059
-51.5605
-51.292
-44.118
-38.5399
-25.0003
-37.9201
-42.8317
-47.9566
-47.7518
-41.1476
-45.556
-46.1135
-46.6383
-47.1269
-47.5766
-47.9855
-48.3524
-48.6767
-48.9585
-49.1981
-49.3962
-49.5535
-49.6708
-49.7485
-49.7873
-45.5843
-46.1457
-46.6738
-47.1651
-47.6167
-48.0268
-48.3942
-48.7186
-48.9999
-49.2389
-49.4363
-49.5929
-49.7095
-49.7868
-49.8254
-45.6414
-46.2107
-46.7456
-47.2423
-47.6978
-48.1102
-48.4785
-48.8026
-49.0831
-49.3207
-49.5164
-49.6715
-49.7868
-49.8632
-49.9012
-45.7275
-46.3093
-46.855
-47.36
-47.8213
-48.2368
-48.6062
-48.9297
-49.2083
-49.4435
-49.6366
-49.7891
-49.9023
-49.9772
-50.0144
-45.8436
-46.4435
-47.0044
-47.521
-47.9897
-48.4091
-48.7791
-49.1009
-49.3764
-49.6076
-49.7965
-49.9453
-50.0553
-50.128
-50.1641
-45.9911
-46.616
-47.1976
-47.7291
-48.2069
-48.63
-48.9995
-49.3178
-49.588
-49.8131
-49.9961
-50.1394
-50.245
-50.3147
-50.3492
-46.172
-46.8312
-47.4401
-47.9903
-48.4781
-48.9038
-49.2704
-49.5822
-49.8439
-50.0601
-50.2344
-50.3703
-50.4701
-50.5356
-50.5681
-46.3901
-47.0962
-47.7408
-48.3134
-48.8109
-49.2362
-49.5955
-49.896
-50.1448
-50.348
-50.5106
-50.6365
-50.7285
-50.7888
-50.8187
-46.6512
-47.4221
-48.1131
-48.7109
-49.2153
-49.6341
-49.9787
-50.2608
-50.4905
-50.6758
-50.8227
-50.9357
-51.018
-51.0717
-51.0983
-46.9649
-47.8271
-48.5779
-49.2012
-49.7044
-50.1055
-50.424
-50.6777
-50.8802
-51.0413
-51.1679
-51.2648
-51.3352
-51.381
-51.4037
-47.3458
-48.3429
-49.1693
-49.8108
-50.2947
-50.6582
-50.9335
-51.1453
-51.3106
-51.4406
-51.5422
-51.6197
-51.676
-51.7127
-51.7308
-47.815
-49.0284
-49.9446
-50.5775
-51.0046
-51.2976
-51.5054
-51.6587
-51.776
-51.8677
-51.9397
-51.9951
-52.0355
-52.0621
-52.0753
-48.4067
-50.0105
-51.0026
-51.5498
-51.8485
-52.0211
-52.1305
-52.2073
-52.2663
-52.314
-52.3532
-52.3845
-52.4081
-52.424
-52.432
-49.2397
-51.6039
-52.5041
-52.7697
-52.8181
-52.8068
-52.787
-52.7729
-52.7673
-52.7684
-52.7737
-52.7808
-52.7876
-52.7929
-52.7958
-51.2224
-54.6603
-54.639
-54.2062
-53.8471
-53.5998
-53.4362
-53.3295
-53.2609
-53.2179
-53.1918
-53.1764
-53.1678
-53.1634
-53.1616
-54.0538
-54.0574
-54.0652
-54.0789
-54.1008
-54.1352
-54.1883
-54.2702
-54.3976
-54.6002
-54.9367
-55.5403
-56.7828
-59.9644
-70.6888
-54.3645
-54.3715
-54.3862
-54.4106
-54.4477
-54.5026
-54.5829
-54.7009
-54.8769
-55.1465
-55.5763
-56.3008
-57.6072
-60.0892
-64.4967
-54.6699
-54.6796
-54.7
-54.733
-54.7819
-54.852
-54.951
-55.091
-55.2909
-55.581
-56.0107
-56.6569
-57.6149
-58.8767
-59.7614
-54.9681
-54.9799
-55.0046
-55.0439
-55.1011
-55.1809
-55.2903
-55.4391
-55.6417
-55.9179
-56.2941
-56.7963
-57.4112
-57.9253
-57.2564
-55.2575
-55.2709
-55.2985
-55.342
-55.4043
-55.4891
-55.6019
-55.7496
-55.9408
-56.1848
-56.4896
-56.8569
-57.2771
-57.795
-59.0709
-55.5371
-55.5514
-55.5809
-55.6268
-55.6913
-55.7774
-55.8888
-56.0295
-56.2026
-56.4087
-56.6416
-56.8804
-57.0746
-57.1378
-56.9999
-55.8062
-55.821
-55.8513
-55.8981
-55.963
-56.048
-56.1552
-56.2863
-56.4407
-56.6132
-56.7892
-56.9345
-56.9624
-56.6201
-54.8396
-56.0644
-56.0794
-56.1098
-56.1564
-56.2203
-56.3028
-56.4048
-56.5265
-56.6654
-56.8143
-56.9582
-57.0695
-57.1066
-57.1008
-57.9258
-56.3117
-56.3265
-56.3566
-56.4023
-56.4644
-56.5437
-56.6405
-56.7542
-56.8822
-57.0181
-57.1498
-57.2557
-57.2799
-57.0043
-55.1153
-56.548
-56.5626
-56.5919
-56.6363
-56.6962
-56.7721
-56.8641
-56.9717
-57.0928
-57.2236
-57.3593
-57.4983
-57.6605
-58.0279
-59.9126
-56.7737
-56.7878
-56.8162
-56.859
-56.9165
-56.9891
-57.0767
-57.1793
-57.2957
-57.4248
-57.5663
-57.7244
-57.8977
-57.9973
-57.1133
-56.989
-57.0026
-57.0299
-57.0709
-57.126
-57.1952
-57.2788
-57.3768
-57.489
-57.6161
-57.7618
-57.9396
-58.1853
-58.6496
-60.2471
-57.1942
-57.2073
-57.2334
-57.2726
-57.3252
-57.3911
-57.4706
-57.5639
-57.6711
-57.7934
-57.9349
-58.1071
-58.3201
-58.5145
-57.9581
-57.3898
-57.4023
-57.4272
-57.4646
-57.5146
-57.5772
-57.6526
-57.7408
-57.8418
-57.9561
-58.0868
-58.2456
-58.4671
-58.9006
-60.3421
-57.5761
-57.588
-57.6117
-57.6474
-57.6948
-57.7542
-57.8254
-57.9084
-58.0024
-58.1063
-58.219
-58.3403
-58.4658
-58.5862
-58.6832
-57.7535
-57.7648
-57.7874
-57.8213
-57.8664
-57.9226
-57.9899
-58.0678
-58.1551
-58.2492
-58.3451
-58.4317
-58.467
-58.2878
-57.0995
-57.9225
-57.9332
-57.9547
-57.9869
-58.0297
-58.083
-58.1467
-58.2202
-58.3022
-58.3897
-58.4777
-58.5581
-58.6163
-58.6899
-59.4069
-58.0832
-58.0935
-58.114
-58.1446
-58.1852
-58.2359
-58.2964
-58.3662
-58.4444
-58.5286
-58.6155
-58.6996
-58.7538
-58.6449
-57.512
-58.2362
-58.246
-58.2655
-58.2947
-58.3334
-58.3816
-58.4392
-58.506
-58.5813
-58.6643
-58.7554
-58.8612
-59.0037
-59.3106
-60.6258
-58.3818
-58.3911
-58.4097
-58.4375
-58.4745
-58.5205
-58.5755
-58.6394
-58.7119
-58.793
-58.885
-58.9968
-59.1383
-59.2758
-58.8741
-58.5201
-58.529
-58.5469
-58.5735
-58.6088
-58.6528
-58.7053
-58.7663
-58.8354
-58.9127
-59.0009
-59.1113
-59.2748
-59.615
-60.7494
-58.6516
-58.6601
-58.6772
-58.7028
-58.7367
-58.7788
-58.829
-58.887
-58.9522
-59.0237
-59.1012
-59.1884
-59.2876
-59.4022
-59.5238
-58.7764
-58.7846
-58.8011
-58.8257
-58.8583
-58.8988
-58.9469
-59.0023
-59.0637
-59.1289
-59.195
-59.2566
-59.2887
-59.1841
-58.3913
-58.8947
-58.9027
-58.9186
-58.9424
-58.974
-59.0131
-59.0596
-59.1128
-59.1713
-59.2323
-59.2917
-59.3448
-59.3836
-59.4437
-59.9784
-59.0068
-59.0145
-59.03
-59.0532
-59.0838
-59.1219
-59.1672
-59.2191
-59.2762
-59.3355
-59.3928
-59.4423
-59.4627
-59.3732
-58.6844
-59.1127
-59.1203
-59.1354
-59.158
-59.1881
-59.2254
-59.27
-59.3213
-59.3783
-59.4386
-59.4995
-59.5594
-59.617
-59.7184
-60.3297
-59.2126
-59.2201
-59.2349
-59.2571
-59.2867
-59.3236
-59.3678
-59.4191
-59.4769
-59.5398
-59.6068
-59.6777
-59.7397
-59.7092
-59.0001
-59.3066
-59.314
-59.3286
-59.3505
-59.3797
-59.4163
-59.4603
-59.5119
-59.5708
-59.6368
-59.7113
-59.8017
-59.9254
-60.1708
-61.103
-59.3948
-59.402
-59.4165
-59.4382
-59.4671
-59.5034
-59.5473
-59.599
-59.6586
-59.7264
-59.8049
-59.902
-60.0256
-60.155
-59.9469
-59.4772
-59.4843
-59.4987
-59.5202
-59.5489
-59.5849
-59.6286
-59.6801
-59.7396
-59.8072
-59.8855
-59.9834
-60.1206
-60.3732
-61.1224
-59.5538
-59.5609
-59.5751
-59.5965
-59.625
-59.6608
-59.7041
-59.7551
-59.8136
-59.8792
-59.9523
-60.0369
-60.1345
-60.2461
-60.3608
-59.6247
-59.6318
-59.6459
-59.6671
-59.6955
-59.731
-59.774
-59.8244
-59.8816
-59.9444
-60.0113
-60.0807
-60.1374
-60.1164
-59.6884
-59.69
-59.697
-59.7111
-59.7322
-59.7604
-59.7958
-59.8384
-59.8883
-59.9445
-60.0053
-60.0685
-60.1328
-60.1932
-60.2691
-60.6179
-59.7495
-59.7566
-59.7706
-59.7917
-59.8198
-59.8551
-59.8976
-59.9472
-60.003
-60.0631
-60.1251
-60.1869
-60.237
-60.2318
-59.9096
-59.8034
-59.8104
-59.8245
-59.8455
-59.8737
-59.9089
-59.9515
-60.0012
-60.0572
-60.118
-60.1817
-60.2487
-60.3181
-60.4143
-60.7794
-59.8517
-59.8587
-59.8727
-59.8938
-59.922
-59.9574
-60.0002
-60.0502
-60.107
-60.1693
-60.2361
-60.3084
-60.3794
-60.4095
-60.1203
-59.8942
-59.9012
-59.9153
-59.9365
-59.9648
-60.0004
-60.0434
-60.094
-60.1517
-60.2159
-60.2866
-60.3682
-60.468
-60.626
-61.1027
-59.931
-59.9381
-59.9523
-59.9735
-60.002
-60.0378
-60.0811
-60.1322
-60.1908
-60.2564
-60.3296
-60.4149
-60.515
-60.6209
-60.5935
-59.9622
-59.9693
-59.9835
-60.0049
-60.0335
-60.0695
-60.1132
-60.1647
-60.2238
-60.2901
-60.3641
-60.4509
-60.5567
-60.7078
-61.0419
-59.9875
-59.9947
-60.009
-60.0305
-60.0593
-60.0955
-60.1394
-60.1912
-60.2506
-60.3168
-60.3899
-60.4729
-60.5659
-60.6672
-60.7655
-60.0071
-60.0143
-60.0287
-60.0504
-60.0793
-60.1158
-60.16
-60.2119
-60.2713
-60.3371
-60.4087
-60.4875
-60.568
-60.6284
-60.5674
-60.0209
-60.0281
-60.0426
-60.0645
-60.0936
-60.1303
-60.1747
-60.2269
-60.2863
-60.3518
-60.4226
-60.5003
-60.5828
-60.6734
-60.8309
-60.0288
-60.0361
-60.0507
-60.0727
-60.1021
-60.1391
-60.1838
-60.2362
-60.2958
-60.3613
-60.4318
-60.5091
-60.5908
-60.6715
-60.7199
-60.0307
-60.0381
-60.0529
-60.0751
-60.1048
-60.1421
-60.1872
-60.24
-60.2999
-60.3657
-60.4364
-60.5141
-60.5983
-60.6916
-60.81
-60.0267
-60.0342
-60.0492
-60.0716
-60.1016
-60.1393
-60.1849
-60.2382
-60.2987
-60.365
-60.4362
-60.5141
-60.5983
-60.6937
-60.8351
-60.0167
-60.0243
-60.0394
-60.0621
-60.0925
-60.1307
-60.1769
-60.2309
-60.2922
-60.3594
-60.4313
-60.509
-60.5894
-60.6636
-60.6815
-60.0006
-60.0083
-60.0236
-60.0466
-60.0774
-60.1161
-60.163
-60.2179
-60.2804
-60.3489
-60.4223
-60.5015
-60.5836
-60.672
-60.8377
-59.9783
-59.9861
-60.0016
-60.025
-60.0562
-60.0955
-60.1432
-60.1992
-60.263
-60.3334
-60.4094
-60.4914
-60.5722
-60.6262
-60.5384
-59.9498
-59.9577
-59.9734
-59.9971
-60.0288
-60.0688
-60.1172
-60.1743
-60.2397
-60.3125
-60.3923
-60.4814
-60.5782
-60.6785
-60.7693
-59.915
-59.923
-59.9389
-59.9629
-59.9951
-60.0357
-60.085
-60.1431
-60.21
-60.285
-60.3688
-60.4656
-60.5805
-60.7371
-61.0734
-59.8738
-59.8818
-59.898
-59.9224
-59.955
-59.9962
-60.0462
-60.1052
-60.1733
-60.25
-60.3361
-60.4365
-60.5525
-60.6704
-60.6373
-59.8261
-59.8343
-59.8507
-59.8753
-59.9084
-59.9501
-60.0007
-60.0605
-60.1293
-60.2067
-60.2937
-60.396
-60.5221
-60.708
-61.1728
-59.7718
-59.7801
-59.7968
-59.8217
-59.8552
-59.8974
-59.9486
-60.0089
-60.078
-60.1552
-60.2406
-60.3384
-60.4489
-60.5516
-60.4151
-59.711
-59.7194
-59.7362
-59.7615
-59.7954
-59.8381
-59.8898
-59.9506
-60.0198
-60.0962
-60.179
-60.2712
-60.38
-60.5607
-61.1995
-59.6434
-59.6519
-59.669
-59.6946
-59.7289
-59.7721
-59.8244
-59.8858
-59.9553
-60.0312
-60.1108
-60.192
-60.26
-60.2512
-59.7654
-59.5691
-59.5777
-59.5949
-59.6208
-59.6556
-59.6994
-59.7524
-59.8146
-59.8852
-59.9619
-60.0416
-60.1212
-60.1921
-60.2725
-60.6769
-59.488
-59.4966
-59.514
-59.5403
-59.5754
-59.6198
-59.6737
-59.7371
-59.8095
-59.8888
-59.9724
-60.0558
-60.1165
-60.0682
-59.4997
-59.3999
-59.4087
-59.4262
-59.4527
-59.4883
-59.5332
-59.588
-59.6528
-59.7275
-59.8112
-59.9034
-60.0057
-60.1152
-60.2248
-60.3183
-59.3049
-59.3137
-59.3314
-59.3581
-59.394
-59.4394
-59.4949
-59.561
-59.638
-59.726
-59.8272
-59.9501
-60.1124
-60.3921
-61.2124
-59.2029
-59.2118
-59.2295
-59.2564
-59.2925
-59.3382
-59.3942
-59.4611
-59.5394
-59.63
-59.7361
-59.8665
-60.027
-60.1835
-59.9289
-59.0939
-59.1028
-59.1206
-59.1475
-59.1836
-59.2295
-59.2856
-59.3526
-59.431
-59.5217
-59.6281
-59.7613
-59.9429
-60.26
-61.2371
-58.9778
-58.9867
-59.0045
-59.0313
-59.0675
-59.1132
-59.1691
-59.2355
-59.3127
-59.4008
-59.5016
-59.6218
-59.7635
-59.8777
-59.4316
-58.8547
-58.8636
-58.8813
-58.9081
-58.944
-58.9895
-59.0449
-59.1103
-59.1855
-59.2693
-59.3615
-59.4669
-59.602
-59.8841
-61.1295
-58.7246
-58.7334
-58.751
-58.7776
-58.8134
-58.8585
-58.9133
-58.9778
-59.0509
-59.1304
-59.2124
-59.2906
-59.337
-59.2212
-58.1158
-58.5875
-58.5962
-58.6138
-58.6401
-58.6756
-58.7204
-58.7747
-58.8385
-58.9107
-58.9882
-59.0658
-59.1359
-59.1835
-59.245
-59.9323
-58.4435
-58.4521
-58.4695
-58.4956
-58.5308
-58.5752
-58.6292
-58.6929
-58.7653
-58.8441
-58.9244
-58.9963
-59.0188
-58.8338
-57.6726
-58.2925
-58.3011
-58.3182
-58.3441
-58.3789
-58.4229
-58.4766
-58.5405
-58.6143
-58.6973
-58.7889
-58.8904
-58.9971
-59.0999
-59.1813
-58.1348
-58.1432
-58.1602
-58.1857
-58.22
-58.2634
-58.3167
-58.3805
-58.4555
-58.5429
-58.6466
-58.7801
-58.9768
-59.3806
-60.7571
-57.9703
-57.9787
-57.9953
-58.0204
-58.0541
-58.0968
-58.1492
-58.2121
-58.2868
-58.3754
-58.4836
-58.6252
-58.8115
-58.9852
-58.4412
-57.7992
-57.8074
-57.8238
-57.8484
-57.8813
-57.923
-57.974
-58.035
-58.1072
-58.1926
-58.2974
-58.4388
-58.6537
-59.0877
-60.6163
-57.6216
-57.6296
-57.6457
-57.6698
-57.702
-57.7424
-57.7914
-57.8495
-57.9169
-57.9946
-58.0859
-58.2007
-58.3423
-58.4296
-57.5897
-57.4375
-57.4454
-57.4612
-57.4849
-57.5162
-57.5554
-57.6023
-57.6568
-57.7183
-57.7854
-57.8582
-57.9432
-58.0675
-58.415
-60.2643
-57.2471
-57.2549
-57.2705
-57.2938
-57.3245
-57.3625
-57.4075
-57.4587
-57.5143
-57.5707
-57.622
-57.6579
-57.6363
-57.3571
-55.5434
-57.0504
-57.0582
-57.0737
-57.0968
-57.1272
-57.1645
-57.2081
-57.257
-57.3085
-57.3578
-57.3965
-57.4119
-57.3826
-57.3644
-58.2638
-56.8473
-56.8552
-56.8709
-56.8941
-56.9245
-56.9616
-57.0048
-57.0527
-57.1029
-57.1505
-57.1872
-57.1964
-57.1199
-56.734
-54.9414
-56.638
-56.646
-56.662
-56.6856
-56.7165
-56.7541
-56.7978
-56.8464
-56.8978
-56.9491
-56.9969
-57.0398
-57.0708
-57.0801
-57.0625
-56.4222
-56.4305
-56.447
-56.4713
-56.5032
-56.542
-56.5871
-56.6374
-56.6915
-56.7484
-56.8102
-56.8909
-57.0353
-57.4445
-59.1819
-56.1998
-56.2084
-56.2257
-56.2512
-56.2845
-56.3252
-56.3724
-56.4251
-56.4821
-56.5427
-56.6102
-56.6972
-56.8147
-56.886
-55.9849
-55.9705
-55.9796
-55.9979
-56.0249
-56.0603
-56.1034
-56.1535
-56.2092
-56.2687
-56.3305
-56.3968
-56.4818
-56.6249
-57.0022
-58.7058
-55.734
-55.7438
-55.7631
-55.792
-55.83
-55.8765
-55.9305
-55.9902
-56.0525
-56.1135
-56.1704
-56.2253
-56.2713
-56.197
-54.9456
-55.49
-55.5003
-55.5211
-55.5521
-55.5932
-55.6439
-55.7032
-55.7687
-55.8359
-55.8977
-55.9454
-55.9744
-55.9999
-56.2089
-58.001
-55.2379
-55.2489
-55.2711
-55.3045
-55.3492
-55.4051
-55.4713
-55.5453
-55.6217
-55.6901
-55.7336
-55.7253
-55.5998
-55.1208
-52.9164
-54.9774
-54.989
-55.0125
-55.0483
-55.0969
-55.1588
-55.2337
-55.3198
-55.4118
-55.4981
-55.5577
-55.557
-55.444
-55.2305
-55.7057
-54.708
-54.72
-54.7446
-54.7825
-54.8349
-54.903
-54.9879
-55.0896
-55.2045
-55.323
-55.4238
-55.4661
-55.3568
-54.8615
-53.074
-54.4294
-54.4416
-54.4668
-54.5061
-54.5613
-54.6351
-54.7303
-54.8496
-54.9936
-55.1584
-55.3307
-55.4798
-55.5364
-55.3894
-54.9716
-54.1415
-54.1535
-54.1784
-54.2178
-54.2744
-54.352
-54.4557
-54.5918
-54.767
-54.9871
-55.2538
-55.5571
-55.8563
-56.105
-56.5888
-53.8444
-53.8557
-53.8792
-53.917
-53.9723
-54.0503
-54.1582
-54.3062
-54.508
-54.782
-55.1514
-55.6368
-56.21
-56.6569
-56.1933
-53.5388
-53.5486
-53.5694
-53.6033
-53.6541
-53.7276
-53.8327
-53.9827
-54.1976
-54.5091
-54.9683
-55.6551
-56.6502
-57.8408
-57.8436
-53.2256
-53.2333
-53.2498
-53.2772
-53.3195
-53.3825
-53.4757
-53.6134
-53.8189
-54.1319
-54.6274
-55.4588
-56.9535
-59.849
-65.5998
-52.9063
-52.9111
-52.9218
-52.9402
-52.9699
-53.0162
-53.0875
-53.1966
-53.3644
-53.6266
-54.0534
-54.8015
-56.2826
-59.8742
-71.2642
-72.1345
-60.6324
-56.9717
-55.4552
-54.6877
-54.2486
-53.9779
-53.8038
-53.6895
-53.6141
-53.5644
-53.5321
-53.5117
-53.4997
-53.4943
-66.8352
-60.6155
-57.6021
-56.0701
-55.2238
-54.7202
-54.4022
-54.1929
-54.0519
-53.956
-53.8907
-53.8466
-53.8178
-53.8004
-53.7922
-58.1155
-58.3712
-57.2026
-56.2085
-55.5218
-55.0619
-54.7498
-54.5339
-54.3828
-54.2764
-54.2017
-54.1499
-54.1152
-54.0939
-54.0838
-56.976
-57.1153
-56.6806
-56.1332
-55.6622
-55.2998
-55.0294
-54.8294
-54.6821
-54.5744
-54.4963
-54.4407
-54.4027
-54.379
-54.3677
-55.7489
-56.2573
-56.2359
-56.0044
-55.7272
-55.4725
-55.2589
-55.0876
-54.9538
-54.8515
-54.7748
-54.7187
-54.6796
-54.6549
-54.6429
-55.5239
-55.7665
-55.9358
-55.9071
-55.7764
-55.6153
-55.458
-55.3191
-55.2033
-55.1105
-55.0384
-54.9843
-54.9458
-54.9212
-54.9091
-53.7939
-55.326
-55.772
-55.8803
-55.8466
-55.7542
-55.6431
-55.5338
-55.4365
-55.3547
-55.289
-55.2384
-55.2017
-55.1779
-55.1662
-56.0395
-55.6391
-55.8416
-55.9518
-55.9575
-55.9048
-55.8256
-55.7397
-55.6585
-55.5875
-55.5286
-55.4822
-55.448
-55.4256
-55.4145
-53.5428
-55.5328
-55.974
-56.0955
-56.1089
-56.0725
-56.0115
-55.9418
-55.8732
-55.8115