/*--------------------------------*- C++ -*----------------------------------*\
| =========                 |                                                 |
| \\      /  F ield         | OpenFOAM: The Open Source CFD Toolbox           |
|  \\    /   O peration     | Version:  5.x                                   |
|   \\  /    A nd           | Web:      www.OpenFOAM.org                      |
|    \\/     M anipulation  |                                                 |
\*---------------------------------------------------------------------------*/
FoamFile
{
    version     2.0;
    format      ascii;
    class       volScalarField;
    location    "1.9";
    object      T;
}
// * * * * * * * * * * * * * * * * * * * * * * * * * * * * * * * * * * * * * //

dimensions      [0 0 0 1 0 0 0];

internalField   nonuniform List<scalar> 
6300
(
322.748
322.245
321.742
321.24
320.739
320.24
319.743
319.248
318.756
318.268
317.782
317.301
316.824
316.352
315.884
322.748
322.244
321.741
321.238
320.737
320.238
319.74
319.245
318.753
318.264
317.779
317.297
316.82
316.347
315.879
322.748
322.243
321.739
321.236
320.734
320.234
319.735
319.24
318.747
318.257
317.771
317.289
316.811
316.337
315.869
322.747
322.241
321.736
321.232
320.729
320.228
319.728
319.231
318.737
318.246
317.759
317.276
316.797
316.323
315.854
322.746
322.239
321.733
321.227
320.722
320.22
319.719
319.22
318.725
318.232
317.744
317.259
316.779
316.304
315.833
322.745
322.237
321.728
321.221
320.714
320.209
319.707
319.206
318.709
318.215
317.724
317.238
316.756
316.279
315.808
322.744
322.233
321.723
321.213
320.705
320.197
319.692
319.19
318.69
318.193
317.7
317.212
316.728
316.25
315.777
322.743
322.23
321.717
321.204
320.693
320.184
319.676
319.17
318.667
318.168
317.672
317.181
316.695
316.214
315.74
322.742
322.226
321.71
321.195
320.681
320.168
319.657
319.148
318.642
318.139
317.64
317.145
316.656
316.173
315.697
322.74
322.221
321.702
321.184
320.667
320.15
319.636
319.123
318.613
318.106
317.603
317.104
316.611
316.125
315.647
322.739
322.216
321.694
321.172
320.651
320.132
319.613
319.096
318.581
318.069
317.561
317.057
316.559
316.069
315.589
322.737
322.211
321.685
321.16
320.635
320.111
319.588
319.067
318.547
318.029
317.515
317.004
316.5
316.004
315.52
322.735
322.206
321.676
321.147
320.618
320.09
319.562
319.036
318.51
317.986
317.464
316.945
316.432
315.927
315.438
322.733
322.2
321.667
321.134
320.601
320.068
319.536
319.004
318.472
317.941
317.411
316.881
316.355
315.835
315.333
322.731
322.194
321.657
321.12
320.583
320.046
319.509
318.971
318.434
317.895
317.356
316.815
316.271
315.727
315.19
315.46
315.078
314.7
314.326
313.957
313.591
313.23
312.873
312.521
312.174
311.831
311.494
311.163
310.836
310.515
310.2
309.89
309.586
309.287
308.994
308.707
308.425
308.148
307.876
307.609
307.347
307.09
306.836
306.587
306.342
306.1
305.862
305.627
305.395
305.165
304.938
304.712
304.489
304.267
304.047
303.828
303.609
303.392
303.175
302.958
302.742
302.525
302.308
302.091
301.873
301.654
301.433
301.211
300.988
300.763
300.535
300.305
300.072
299.837
299.599
299.357
299.112
298.863
298.61
298.353
298.093
297.828
297.558
297.285
297.006
296.723
296.435
296.143
295.846
295.543
295.236
294.924
294.608
294.286
293.959
293.628
293.291
292.95
292.604
292.254
291.898
291.538
291.174
290.805
290.432
315.455
315.073
314.695
314.321
313.951
313.585
313.223
312.866
312.514
312.167
311.824
311.487
311.155
310.828
310.507
310.192
309.882
309.578
309.279
308.986
308.699
308.417
308.14
307.869
307.602
307.341
307.083
306.83
306.582
306.337
306.096
305.858
305.623
305.391
305.162
304.935
304.71
304.487
304.265
304.045
303.826
303.608
303.391
303.175
302.958
302.742
302.526
302.309
302.092
301.874
301.655
301.435
301.214
300.991
300.766
300.538
300.309
300.076
299.841
299.603
299.362
299.117
298.868
298.616
298.359
298.099
297.834
297.565
297.291
297.013
296.73
296.442
296.15
295.852
295.55
295.243
294.931
294.614
294.293
293.966
293.634
293.298
292.957
292.611
292.26
291.905
291.545
291.18
290.811
290.438
315.444
315.062
314.684
314.309
313.939
313.572
313.21
312.853
312.5
312.152
311.809
311.472
311.139
310.813
310.491
310.176
309.866
309.562
309.263
308.971
308.684
308.402
308.126
307.855
307.589
307.327
307.071
306.819
306.571
306.327
306.086
305.849
305.615
305.384
305.155
304.929
304.704
304.482
304.261
304.042
303.823
303.606
303.39
303.174
302.958
302.742
302.526
302.31
302.094
301.877
301.659
301.439
301.218
300.996
300.772
300.545
300.316
300.084
299.85
299.612
299.371
299.127
298.879
298.627
298.371
298.111
297.846
297.577
297.304
297.026
296.743
296.456
296.163
295.866
295.564
295.257
294.945
294.628
294.306
293.98
293.648
293.312
292.97
292.624
292.273
291.918
291.557
291.193
290.823
290.45
315.429
315.046
314.667
314.292
313.92
313.554
313.191
312.833
312.479
312.131
311.787
311.449
311.116
310.789
310.467
310.152
309.842
309.538
309.239
308.947
308.66
308.379
308.104
307.833
307.568
307.308
307.052
306.801
306.554
306.311
306.072
305.836
305.603
305.372
305.145
304.92
304.696
304.475
304.255
304.037
303.819
303.603
303.387
303.172
302.957
302.742
302.528
302.312
302.097
301.881
301.663
301.445
301.225
301.004
300.781
300.555
300.327
300.097
299.863
299.626
299.386
299.143
298.895
298.644
298.388
298.129
297.865
297.596
297.323
297.046
296.763
296.476
296.184
295.887
295.585
295.278
294.966
294.649
294.327
294
293.669
293.332
292.991
292.644
292.293
291.937
291.577
291.211
290.842
290.467
315.407
315.024
314.644
314.268
313.897
313.529
313.165
312.806
312.452
312.102
311.758
311.419
311.085
310.757
310.435
310.119
309.809
309.505
309.207
308.915
308.629
308.349
308.074
307.804
307.54
307.281
307.027
306.777
306.532
306.29
306.052
305.818
305.586
305.358
305.131
304.908
304.686
304.466
304.247
304.03
303.814
303.599
303.384
303.17
302.956
302.743
302.529
302.315
302.101
301.886
301.67
301.453
301.235
301.015
300.793
300.569
300.342
300.113
299.88
299.645
299.406
299.163
298.917
298.666
298.412
298.153
297.89
297.622
297.349
297.072
296.79
296.503
296.211
295.914
295.612
295.306
294.994
294.677
294.355
294.028
293.696
293.359
293.018
292.671
292.32
291.963
291.602
291.237
290.866
290.491
315.381
314.996
314.616
314.239
313.867
313.498
313.133
312.773
312.417
312.066
311.72
311.38
311.046
310.717
310.394
310.078
309.768
309.464
309.166
308.875
308.589
308.31
308.036
307.768
307.506
307.248
306.996
306.748
306.504
306.264
306.028
305.796
305.566
305.339
305.115
304.893
304.672
304.454
304.237
304.022
303.807
303.593
303.38
303.168
302.955
302.743
302.531
302.318
302.106
301.892
301.678
301.463
301.246
301.028
300.808
300.586
300.361
300.133
299.902
299.668
299.431
299.189
298.944
298.695
298.441
298.183
297.921
297.654
297.382
297.105
296.824
296.537
296.245
295.949
295.647
295.341
295.029
294.712
294.39
294.063
293.731
293.394
293.052
292.705
292.353
291.996
291.635
291.269
290.898
290.522
315.349
314.964
314.582
314.205
313.831
313.462
313.095
312.733
312.376
312.023
311.675
311.334
310.998
310.668
310.345
310.028
309.718
309.414
309.117
308.826
308.541
308.263
307.991
307.724
307.464
307.208
306.958
306.712
306.471
306.233
306
305.769
305.542
305.317
305.095
304.875
304.657
304.44
304.225
304.012
303.799
303.587
303.376
303.165
302.954
302.743
302.533
302.322
302.111
301.9
301.688
301.475
301.26
301.044
300.826
300.606
300.383
300.158
299.929
299.697
299.461
299.221
298.977
298.729
298.477
298.22
297.959
297.692
297.421
297.145
296.864
296.578
296.287
295.99
295.689
295.383
295.071
294.754
294.432
294.105
293.772
293.435
293.092
292.745
292.393
292.036
291.674
291.307
290.935
290.558
315.311
314.925
314.543
314.165
313.791
313.42
313.052
312.688
312.328
311.972
311.622
311.278
310.941
310.61
310.286
309.969
309.659
309.355
309.058
308.768
308.484
308.207
307.936
307.672
307.414
307.161
306.913
306.67
306.431
306.197
305.966
305.738
305.514
305.292
305.072
304.854
304.638
304.424
304.212
304
303.79
303.58
303.371
303.162
302.952
302.744
302.535
302.326
302.117
301.908
301.699
301.488
301.276
301.063
300.848
300.63
300.41
300.187
299.961
299.731
299.497
299.259
299.016
298.77
298.519
298.263
298.003
297.738
297.468
297.193
296.912
296.626
296.335
296.039
295.738
295.432
295.121
294.804
294.481
294.154
293.821
293.483
293.14
292.792
292.44
292.083
291.721
291.353
290.981
290.602
315.267
314.881
314.499
314.12
313.745
313.373
313.003
312.636
312.273
311.914
311.56
311.214
310.874
310.542
310.218
309.9
309.59
309.286
308.99
308.7
308.417
308.142
307.874
307.612
307.356
307.106
306.862
306.622
306.386
306.155
305.928
305.703
305.482
305.263
305.046
304.831
304.618
304.406
304.196
303.987
303.78
303.572
303.365
303.158
302.951
302.744
302.537
302.33
302.124
301.917
301.711
301.503
301.295
301.084
300.872
300.658
300.441
300.221
299.997
299.77
299.538
299.302
299.061
298.816
298.567
298.313
298.054
297.791
297.522
297.248
296.968
296.682
296.391
296.095
295.795
295.489
295.178
294.861
294.538
294.21
293.876
293.538
293.194
292.847
292.494
292.137
291.775
291.407
291.033
290.654
315.216
314.83
314.449
314.071
313.696
313.322
312.95
312.579
312.211
311.847
311.489
311.139
310.797
310.464
310.139
309.822
309.511
309.208
308.911
308.622
308.34
308.067
307.801
307.543
307.291
307.044
306.803
306.567
306.335
306.108
305.885
305.665
305.447
305.231
305.018
304.805
304.594
304.386
304.179
303.973
303.769
303.564
303.36
303.155
302.949
302.743
302.538
302.334
302.13
301.927
301.724
301.52
301.315
301.109
300.9
300.689
300.476
300.259
300.039
299.815
299.586
299.352
299.113
298.869
298.621
298.369
298.113
297.851
297.584
297.31
297.031
296.745
296.454
296.158
295.858
295.553
295.243
294.926
294.604
294.274
293.939
293.599
293.255
292.907
292.555
292.199
291.837
291.469
291.094
290.713
315.158
314.773
314.394
314.018
313.644
313.27
312.895
312.519
312.144
311.772
311.408
311.052
310.707
310.373
310.049
309.733
309.423
309.12
308.822
308.533
308.252
307.98
307.718
307.464
307.217
306.975
306.738
306.505
306.278
306.055
305.837
305.622
305.409
305.198
304.987
304.777
304.569
304.363
304.159
303.958
303.758
303.557
303.355
303.152
302.947
302.742
302.538
302.336
302.135
301.936
301.738
301.539
301.338
301.136
300.93
300.723
300.515
300.303
300.088
299.867
299.641
299.409
299.171
298.928
298.681
298.432
298.178
297.92
297.655
297.382
297.102
296.815
296.523
296.227
295.928
295.625
295.316
295.001
294.678
294.347
294.009
293.667
293.321
292.973
292.622
292.268
291.907
291.54
291.165
290.782
315.09
314.708
314.333
313.963
313.594
313.22
312.841
312.457
312.071
311.688
311.313
310.95
310.602
310.268
309.948
309.635
309.327
309.022
308.722
308.431
308.15
307.881
307.623
307.376
307.136
306.899
306.666
306.436
306.213
305.995
305.784
305.577
305.37
305.163
304.954
304.746
304.539
304.336
304.137
303.941
303.747
303.551
303.353
303.15
302.946
302.74
302.537
302.335
302.138
301.944
301.752
301.56
301.365
301.166
300.964
300.761
300.557
300.352
300.143
299.928
299.705
299.473
299.235
298.992
298.746
298.499
298.251
297.997
297.736
297.464
297.183
296.894
296.598
296.301
296.003
295.704
295.4
295.087
294.763
294.429
294.086
293.738
293.389
293.042
292.695
292.345
291.988
291.622
291.246
290.862
315.009
314.634
314.264
313.907
313.55
313.177
312.795
312.397
311.996
311.59
311.201
310.826
310.476
310.145
309.835
309.532
309.225
308.918
308.61
308.314
308.03
307.765
307.513
307.278
307.05
306.819
306.589
306.359
306.139
305.927
305.727
305.531
305.331
305.129
304.922
304.714
304.505
304.303
304.109
303.923
303.739
303.549
303.355
303.152
302.946
302.736
302.531
302.329
302.136
301.949
301.768
301.585
301.396
301.2
300.999
300.799
300.601
300.407
300.209
300
299.78
299.548
299.307
299.059
298.813
298.569
298.33
298.087
297.83
297.561
297.275
296.981
296.676
296.376
296.079
295.79
295.497
295.187
294.864
294.523
294.172
293.811
293.457
293.109
292.772
292.434
292.081
291.717
291.338
290.955
314.907
314.55
314.178
313.853
313.527
313.149
312.77
312.343
311.926
311.47
311.067
310.667
310.323
309.991
309.71
309.435
309.124
308.817
308.48
308.18
307.884
307.628
307.381
307.171
306.967
306.737
306.512
306.268
306.052
305.842
305.664
305.49
305.296
305.103
304.89
304.683
304.459
304.261
304.068
303.902
303.739
303.554
303.369
303.159
302.953
302.725
302.519
302.311
302.127
301.944
301.784
301.622
301.434
301.244
301.03
300.836
300.639
300.466
300.291
300.085
299.875
299.633
299.391
299.121
298.877
298.631
298.416
298.197
297.942
297.681
297.381
297.081
296.747
296.446
296.145
295.882
295.616
295.307
294.991
294.63
294.271
293.872
293.515
293.159
292.851
292.544
292.189
291.833
291.437
291.066
314.761
314.49
314.024
313.8
313.578
313.123
312.815
312.274
311.914
311.274
310.927
310.429
310.153
309.765
309.577
309.392
309.016
308.758
308.296
308.043
307.68
307.478
307.194
307.056
306.921
306.649
306.464
306.135
305.958
305.712
305.593
305.48
305.258
305.107
304.849
304.676
304.375
304.212
303.987
303.877
303.771
303.561
303.416
303.163
302.99
302.681
302.509
302.258
302.115
301.907
301.803
301.696
301.476
301.32
301.034
300.875
300.644
300.53
300.414
300.18
300.014
299.718
299.515
299.146
298.943
298.649
298.505
298.36
298.064
297.856
297.485
297.23
296.771
296.518
296.154
295.977
295.799
295.437
295.184
294.734
294.427
293.874
293.572
293.139
292.93
292.722
292.298
292.009
291.499
291.213
290.017
289.559
289.095
288.626
288.152
287.674
287.193
286.707
286.219
285.728
285.235
284.74
284.244
283.747
283.249
290.023
289.564
289.1
288.63
288.156
287.678
287.196
286.71
286.222
285.73
285.237
284.742
284.245
283.747
283.249
290.034
289.575
289.11
288.64
288.165
287.686
287.203
286.716
286.227
285.735
285.24
284.744
284.247
283.748
283.25
290.051
289.591
289.125
288.654
288.178
287.697
287.213
286.725
286.234
285.741
285.245
284.748
284.25
283.75
283.25
290.074
289.612
289.145
288.672
288.195
287.713
287.227
286.737
286.244
285.749
285.252
284.754
284.253
283.752
283.251
290.103
289.64
289.171
288.696
288.216
287.732
287.243
286.752
286.257
285.76
285.261
284.76
284.258
283.755
283.252
290.138
289.673
289.202
288.724
288.242
287.755
287.264
286.769
286.272
285.773
285.271
284.768
284.264
283.758
283.253
290.18
289.713
289.239
288.758
288.272
287.782
287.288
286.79
286.29
285.787
285.283
284.777
284.27
283.762
283.254
290.23
289.759
289.281
288.797
288.307
287.813
287.314
286.813
286.309
285.803
285.296
284.787
284.277
283.766
283.256
290.287
289.813
289.33
288.841
288.346
287.847
287.344
286.839
286.331
285.821
285.31
284.798
284.285
283.771
283.257
290.353
289.874
289.386
288.891
288.39
287.885
287.377
286.867
286.354
285.84
285.325
284.809
284.293
283.776
283.259
290.43
289.945
289.45
288.946
288.438
287.926
287.412
286.896
286.379
285.861
285.342
284.822
284.302
283.781
283.26
290.52
290.027
289.52
289.007
288.489
287.97
287.449
286.927
286.405
285.882
285.358
284.835
284.311
283.786
283.262
290.63
290.121
289.598
289.071
288.542
288.014
287.486
286.959
286.431
285.903
285.375
284.848
284.32
283.792
283.264
290.773
290.228
289.68
289.136
288.596
288.059
287.524
286.99
286.457
285.925
285.393
284.861
284.329
283.797
283.266
322.73
322.189
321.649
321.108
320.567
320.026
319.484
318.942
318.399
317.854
317.307
316.755
316.196
315.62
314.997
322.728
322.185
321.641
321.097
320.553
320.008
319.462
318.916
318.368
317.819
317.266
316.707
316.14
315.555
314.938
322.727
322.18
321.633
321.086
320.538
319.99
319.441
318.891
318.34
317.785
317.228
316.665
316.095
315.513
314.917
322.725
322.175
321.626
321.075
320.525
319.973
319.421
318.868
318.312
317.755
317.194
316.629
316.058
315.481
314.9
322.724
322.171
321.618
321.065
320.511
319.957
319.402
318.845
318.287
317.726
317.163
316.596
316.026
315.451
314.87
322.722
322.167
321.611
321.055
320.499
319.941
319.383
318.824
318.263
317.7
317.134
316.567
315.997
315.425
314.854
322.721
322.163
321.605
321.046
320.487
319.927
319.366
318.803
318.24
317.675
317.108
316.539
315.969
315.4
314.837
322.72
322.159
321.598
321.037
320.475
319.912
319.349
318.784
318.218
317.651
317.082
316.512
315.941
315.37
314.799
322.718
322.155
321.592
321.028
320.464
319.899
319.333
318.766
318.198
317.628
317.058
316.485
315.912
315.34
314.772
322.717
322.152
321.586
321.02
320.453
319.886
319.318
318.749
318.178
317.607
317.034
316.46
315.884
315.306
314.723
322.716
322.148
321.58
321.012
320.443
319.874
319.303
318.732
318.16
317.586
317.011
316.435
315.857
315.277
314.697
322.715
322.145
321.575
321.005
320.434
319.862
319.29
318.716
318.142
317.567
316.99
316.411
315.831
315.248
314.658
322.714
322.142
321.57
320.997
320.424
319.851
319.277
318.701
318.125
317.548
316.969
316.389
315.807
315.223
314.637
322.713
322.139
321.565
320.991
320.416
319.84
319.264
318.687
318.109
317.53
316.95
316.369
315.785
315.199
314.607
322.712
322.136
321.56
320.984
320.407
319.83
319.252
318.674
318.094
317.514
316.932
316.349
315.765
315.18
314.594
322.711
322.134
321.556
320.978
320.4
319.821
319.241
318.661
318.08
317.498
316.915
316.331
315.746
315.161
314.58
322.71
322.131
321.552
320.972
320.392
319.811
319.23
318.649
318.066
317.482
316.898
316.313
315.727
315.141
314.553
322.71
322.129
321.548
320.966
320.385
319.803
319.22
318.637
318.053
317.468
316.882
316.296
315.708
315.121
314.535
322.709
322.126
321.544
320.961
320.378
319.794
319.21
318.626
318.04
317.454
316.867
316.279
315.69
315.099
314.504
322.708
322.124
321.54
320.956
320.372
319.787
319.201
318.615
318.028
317.441
316.852
316.263
315.673
315.08
314.487
322.707
322.122
321.537
320.951
320.365
319.779
319.192
318.605
318.017
317.428
316.839
316.248
315.656
315.063
314.464
322.707
322.12
321.534
320.947
320.359
319.772
319.184
318.595
318.006
317.416
316.826
316.234
315.642
315.049
314.454
322.706
322.118
321.53
320.942
320.354
319.765
319.176
318.586
317.996
317.405
316.813
316.221
315.628
315.035
314.445
322.706
322.117
321.527
320.938
320.349
319.759
319.168
318.578
317.986
317.394
316.801
316.208
315.615
315.021
314.426
322.705
322.115
321.525
320.934
320.344
319.753
319.161
318.569
317.977
317.384
316.79
316.196
315.601
315.007
314.414
322.704
322.113
321.522
320.931
320.339
319.747
319.154
318.561
317.968
317.374
316.779
316.184
315.588
314.992
314.394
322.704
322.112
321.52
320.927
320.334
319.741
319.148
318.554
317.96
317.364
316.769
316.172
315.575
314.978
314.381
322.703
322.11
321.517
320.924
320.33
319.736
319.142
318.547
317.952
317.356
316.759
316.161
315.563
314.963
314.359
322.703
322.109
321.515
320.921
320.326
319.731
319.136
318.54
317.944
317.347
316.75
316.151
315.552
314.951
314.349
322.703
322.108
321.513
320.918
320.323
319.727
319.131
318.534
317.937
317.34
316.741
316.142
315.541
314.939
314.334
322.702
322.107
321.511
320.915
320.319
319.723
319.126
318.529
317.931
317.332
316.733
316.133
315.532
314.931
314.328
322.702
322.106
321.509
320.913
320.316
319.719
319.121
318.523
317.925
317.326
316.726
316.125
315.524
314.923
314.322
322.702
322.105
321.508
320.91
320.313
319.715
319.117
318.518
317.919
317.32
316.719
316.118
315.517
314.914
314.311
322.701
322.104
321.506
320.908
320.31
319.712
319.113
318.514
317.914
317.314
316.713
316.111
315.509
314.907
314.305
322.701
322.103
321.505
320.906
320.308
319.709
319.11
318.51
317.91
317.309
316.707
316.105
315.502
314.899
314.294
322.701
322.102
321.504
320.905
320.306
319.706
319.107
318.506
317.906
317.304
316.702
316.099
315.496
314.892
314.288
322.701
322.102
321.503
320.903
320.304
319.704
319.104
318.503
317.902
317.3
316.698
316.094
315.49
314.885
314.278
322.7
322.101
321.502
320.902
320.302
319.702
319.101
318.5
317.899
317.297
316.694
316.09
315.485
314.88
314.273
322.7
322.101
321.501
320.901
320.301
319.7
319.099
318.498
317.896
317.293
316.69
316.086
315.481
314.875
314.267
322.7
322.1
321.5
320.9
320.3
319.699
319.098
318.496
317.894
317.291
316.687
316.083
315.478
314.872
314.265
322.7
322.1
321.5
320.899
320.299
319.698
319.096
318.495
317.892
317.289
316.685
316.081
315.476
314.87
314.263
322.7
322.1
321.499
320.899
320.298
319.697
319.095
318.493
317.891
317.288
316.684
316.079
315.474
314.868
314.26
322.7
322.1
321.499
320.899
320.298
319.697
319.095
318.493
317.89
317.287
316.683
316.078
315.473
314.866
314.259
322.7
322.1
321.499
320.898
320.298
319.696
319.095
318.493
317.89
317.287
316.683
316.078
315.472
314.866
314.259
322.7
322.1
321.499
320.899
320.298
319.697
319.095
318.493
317.89
317.287
316.683
316.078
315.473
314.866
314.259
322.7
322.1
321.499
320.899
320.298
319.697
319.096
318.494
317.891
317.288
316.684
316.079
315.474
314.867
314.26
322.7
322.1
321.5
320.9
320.299
319.698
319.097
318.495
317.892
317.289
316.685
316.081
315.475
314.869
314.262
322.7
322.1
321.5
320.9
320.3
319.699
319.098
318.496
317.894
317.291
316.687
316.083
315.478
314.871
314.265
322.7
322.101
321.501
320.901
320.301
319.701
319.1
318.498
317.896
317.294
316.69
316.086
315.48
314.874
314.267
322.7
322.101
321.502
320.902
320.303
319.703
319.102
318.501
317.899
317.297
316.693
316.089
315.484
314.878
314.269
322.701
322.102
321.503
320.904
320.305
319.705
319.105
318.504
317.903
317.3
316.698
316.094
315.489
314.883
314.275
322.701
322.103
321.504
320.906
320.307
319.707
319.108
318.507
317.906
317.305
316.702
316.099
315.494
314.889
314.28
322.701
322.103
321.506
320.907
320.309
319.71
319.111
318.511
317.911
317.31
316.708
316.105
315.501
314.896
314.29
322.701
322.104
321.507
320.91
320.312
319.714
319.115
318.516
317.916
317.315
316.714
316.112
315.509
314.904
314.298
322.702
322.105
321.509
320.912
320.315
319.717
319.119
318.521
317.922
317.322
316.721
316.12
315.517
314.914
314.312
322.702
322.106
321.511
320.915
320.318
319.721
319.124
318.526
317.928
317.329
316.729
316.128
315.526
314.924
314.321
322.703
322.108
321.513
320.917
320.322
319.726
319.129
318.532
317.935
317.336
316.737
316.137
315.536
314.934
314.334
322.703
322.109
321.515
320.92
320.326
319.731
319.135
318.539
317.942
317.344
316.746
316.146
315.546
314.944
314.341
322.703
322.11
321.517
320.924
320.33
319.736
319.141
318.546
317.95
317.353
316.756
316.157
315.557
314.954
314.349
322.704
322.112
321.52
320.927
320.335
319.742
319.148
318.554
317.959
317.363
316.766
316.168
315.569
314.968
314.365
322.705
322.114
321.522
320.931
320.34
319.747
319.155
318.562
317.968
317.373
316.777
316.181
315.582
314.982
314.377
322.705
322.115
321.525
320.935
320.345
319.754
319.162
318.571
317.978
317.384
316.79
316.194
315.597
314.999
314.4
322.706
322.117
321.528
320.94
320.35
319.761
319.171
318.58
317.988
317.396
316.803
316.209
315.614
315.017
314.416
322.706
322.119
321.532
320.944
320.356
319.768
319.179
318.59
317.999
317.409
316.817
316.224
315.631
315.038
314.447
322.707
322.121
321.535
320.949
320.362
319.775
319.188
318.6
318.011
317.422
316.831
316.24
315.649
315.057
314.464
322.708
322.123
321.539
320.954
320.369
319.783
319.197
318.611
318.023
317.435
316.847
316.257
315.667
315.077
314.49
322.709
322.126
321.543
320.959
320.376
319.792
319.207
318.622
318.036
317.45
316.862
316.274
315.685
315.094
314.503
322.709
322.128
321.546
320.965
320.383
319.8
319.217
318.634
318.05
317.465
316.879
316.292
315.703
315.112
314.516
322.71
322.13
321.551
320.971
320.39
319.809
319.228
318.646
318.064
317.481
316.896
316.311
315.724
315.135
314.544
322.711
322.133
321.555
320.977
320.398
319.819
319.239
318.659
318.079
317.497
316.915
316.331
315.746
315.158
314.564
322.712
322.136
321.559
320.983
320.406
319.829
319.251
318.673
318.094
317.515
316.934
316.353
315.77
315.186
314.602
322.713
322.138
321.564
320.989
320.414
319.839
319.263
318.687
318.11
317.532
316.954
316.375
315.795
315.214
314.627
322.714
322.141
321.569
320.996
320.423
319.849
319.276
318.701
318.126
317.551
316.975
316.399
315.822
315.246
314.675
322.715
322.144
321.574
321.003
320.432
319.86
319.288
318.716
318.143
317.57
316.996
316.422
315.848
315.274
314.701
322.716
322.147
321.579
321.01
320.441
319.871
319.302
318.731
318.161
317.589
317.017
316.445
315.874
315.303
314.739
322.717
322.15
321.584
321.017
320.45
319.883
319.315
318.747
318.178
317.609
317.039
316.469
315.898
315.328
314.757
322.718
322.154
321.589
321.025
320.46
319.895
319.329
318.763
318.196
317.629
317.061
316.493
315.923
315.352
314.775
322.719
322.157
321.595
321.032
320.47
319.907
319.343
318.779
318.215
317.65
317.084
316.517
315.95
315.381
314.812
322.72
322.16
321.601
321.04
320.48
319.919
319.358
318.796
318.234
317.671
317.107
316.543
315.978
315.41
314.838
322.721
322.164
321.606
321.049
320.491
319.932
319.373
318.814
318.253
317.692
317.131
316.569
316.007
315.444
314.883
322.723
322.168
321.613
321.057
320.502
319.945
319.389
318.831
318.273
317.715
317.155
316.596
316.036
315.476
314.912
322.724
322.171
321.619
321.066
320.513
319.959
319.405
318.85
318.294
317.737
317.18
316.622
316.065
315.51
314.963
322.725
322.175
321.625
321.075
320.524
319.973
319.421
318.868
318.315
317.76
317.205
316.649
316.094
315.54
314.989
322.726
322.179
321.632
321.084
320.536
319.988
319.438
318.888
318.337
317.784
317.23
316.675
316.121
315.568
315.024
322.728
322.184
321.639
321.094
320.549
320.003
319.456
318.908
318.359
317.809
317.256
316.702
316.146
315.591
315.039
322.729
322.188
321.646
321.104
320.562
320.019
319.475
318.93
318.383
317.834
317.283
316.729
316.172
315.612
315.05
322.731
322.192
321.654
321.115
320.575
320.035
319.494
318.952
318.408
317.862
317.313
316.759
316.2
315.635
315.067
322.732
322.197
321.661
321.126
320.589
320.052
319.515
318.976
318.435
317.892
317.345
316.792
316.232
315.659
315.075
322.734
322.202
321.669
321.137
320.604
320.07
319.536
319.001
318.464
317.924
317.381
316.832
316.272
315.693
315.075
322.735
322.206
321.677
321.148
320.618
320.089
319.558
319.027
318.494
317.96
317.422
316.878
316.326
315.753
315.128
290.963
290.33
289.751
289.191
288.641
288.097
287.556
287.018
286.48
285.944
285.408
284.873
284.337
283.802
283.267
291.013
290.387
289.801
289.235
288.679
288.13
287.585
287.042
286.501
285.961
285.422
284.883
284.345
283.807
283.269
291.004
290.415
289.837
289.271
288.713
288.16
287.611
287.065
286.521
285.978
285.435
284.894
284.352
283.811
283.27
291.007
290.435
289.865
289.301
288.742
288.188
287.636
287.087
286.54
285.994
285.448
284.904
284.359
283.816
283.272
291.014
290.452
289.889
289.328
288.769
288.213
287.659
287.108
286.558
286.009
285.461
284.913
284.366
283.82
283.273
291.027
290.471
289.912
289.352
288.794
288.237
287.681
287.127
286.575
286.023
285.473
284.923
284.373
283.824
283.275
291.041
290.491
289.935
289.376
288.817
288.259
287.702
287.146
286.591
286.037
285.484
284.932
284.379
283.828
283.276
291.072
290.516
289.959
289.4
288.84
288.28
287.722
287.164
286.607
286.051
285.495
284.94
284.386
283.831
283.277
291.095
290.543
289.984
289.424
288.862
288.301
287.741
287.181
286.622
286.064
285.506
284.949
284.392
283.835
283.278
291.141
290.574
290.011
289.448
288.885
288.322
287.76
287.198
286.637
286.076
285.516
284.957
284.397
283.838
283.279
291.167
290.603
290.038
289.472
288.907
288.342
287.778
287.214
286.651
286.088
285.526
284.964
284.403
283.842
283.281
291.208
290.633
290.064
289.496
288.928
288.362
287.796
287.23
286.665
286.1
285.536
284.972
284.408
283.845
283.282
291.231
290.66
290.089
289.519
288.95
288.381
287.813
287.245
286.678
286.112
285.545
284.979
284.414
283.848
283.283
291.265
290.686
290.113
289.541
288.97
288.4
287.83
287.26
286.691
286.123
285.554
284.986
284.419
283.851
283.284
291.282
290.709
290.136
289.563
288.991
288.418
287.847
287.275
286.704
286.134
285.563
284.993
284.424
283.854
283.285
291.298
290.731
290.159
289.585
289.011
288.436
287.863
287.289
286.717
286.144
285.572
285
284.428
283.857
283.286
291.333
290.758
290.182
289.606
289.03
288.454
287.879
287.304
286.729
286.154
285.58
285.007
284.433
283.86
283.287
291.357
290.784
290.207
289.628
289.05
288.472
287.894
287.317
286.741
286.164
285.589
285.013
284.438
283.863
283.288
291.401
290.814
290.231
289.65
289.069
288.489
287.909
287.331
286.752
286.174
285.597
285.019
284.442
283.865
283.288
291.425
290.84
290.254
289.67
289.088
288.505
287.924
287.343
286.763
286.184
285.604
285.025
284.446
283.868
283.289
291.46
290.866
290.277
289.69
289.105
288.522
287.938
287.356
286.774
286.193
285.612
285.031
284.451
283.87
283.29
291.479
290.887
290.297
289.709
289.123
288.537
287.952
287.368
286.785
286.201
285.619
285.037
284.455
283.873
283.291
291.505
290.908
290.317
289.727
289.139
288.552
287.965
287.38
286.795
286.21
285.626
285.042
284.458
283.875
283.292
291.518
290.926
290.334
289.744
289.155
288.566
287.978
287.391
286.804
286.218
285.632
285.047
284.462
283.877
283.292
291.53
290.942
290.351
289.76
289.169
288.579
287.99
287.402
286.814
286.226
285.639
285.052
284.466
283.879
283.293
291.554
290.961
290.368
289.776
289.184
288.592
288.002
287.412
286.822
286.233
285.645
285.057
284.469
283.881
283.294
291.571
290.979
290.385
289.791
289.198
288.605
288.013
287.422
286.831
286.241
285.651
285.061
284.472
283.883
283.294
291.6
290.999
290.402
289.806
289.211
288.617
288.023
287.431
286.839
286.247
285.656
285.066
284.475
283.885
283.295
291.615
291.016
290.417
289.82
289.223
288.628
288.034
287.44
286.847
286.254
285.662
285.07
284.478
283.887
283.296
291.637
291.032
290.432
289.833
289.235
288.639
288.043
287.448
286.854
286.26
285.667
285.074
284.481
283.889
283.296
291.649
291.046
290.445
289.845
289.246
288.649
288.052
287.456
286.861
286.266
285.671
285.077
284.484
283.89
283.297
291.665
291.059
290.456
289.856
289.256
288.658
288.06
287.463
286.867
286.271
285.676
285.081
284.486
283.892
283.297
291.672
291.069
290.467
289.866
289.266
288.667
288.068
287.47
286.873
286.276
285.68
285.084
284.489
283.893
283.298
291.679
291.078
290.477
289.875
289.275
288.675
288.075
287.477
286.879
286.281
285.684
285.087
284.491
283.894
283.298
291.692
291.089
290.486
289.884
289.283
288.682
288.082
287.483
286.884
286.286
285.688
285.09
284.493
283.896
283.299
291.701
291.098
290.495
289.892
289.29
288.689
288.088
287.488
286.889
286.29
285.691
285.093
284.495
283.897
283.299
291.715
291.108
290.504
289.9
289.297
288.696
288.094
287.494
286.893
286.294
285.694
285.095