/*--------------------------------*- C++ -*----------------------------------*\
| =========                 |                                                 |
| \\      /  F ield         | OpenFOAM: The Open Source CFD Toolbox           |
|  \\    /   O peration     | Version:  5.x                                   |
|   \\  /    A nd           | Web:      www.OpenFOAM.org                      |
|    \\/     M anipulation  |                                                 |
\*---------------------------------------------------------------------------*/
FoamFile
{
    version     2.0;
    format      ascii;
    class       volScalarField;
    location    "2";
    object      gradTy;
}
// * * * * * * * * * * * * * * * * * * * * * * * * * * * * * * * * * * * * * //

dimensions      [0 -1 0 1 0 0 0];

internalField   nonuniform List<scalar> 
6300
(
32275
32225
32175.1
32125.3
32075.6
32026.1
31976.7
31927.6
31878.8
31830.2
31782.1
31734.2
31686.8
31639.8
31593.3
-0.0260073
-0.0781252
-0.130531
-0.183366
-0.236697
-0.290478
-0.344526
-0.398499
-0.451888
-0.504038
-0.554199
-0.601626
-0.645712
-0.686148
-0.723067
-0.0432289
-0.129877
-0.217062
-0.30505
-0.393985
-0.483822
-0.574278
-0.664791
-0.754492
-0.842229
-0.92665
-1.00636
-1.08016
-1.14738
-1.20817
-0.0602661
-0.181093
-0.302776
-0.42577
-0.550347
-0.676516
-0.80394
-0.931854
-1.05901
-1.18369
-1.30376
-1.41694
-1.52114
-1.61501
-1.69849
-0.0770025
-0.231447
-0.387173
-0.544896
-0.705101
-0.867936
-1.03309
-1.19965
-1.36599
-1.52972
-1.68774
-1.83647
-1.97242
-2.09299
-2.19752
-0.09329
-0.2805
-0.469549
-0.661507
-0.857184
-1.05699
-1.26077
-1.46759
-1.6755
-1.8814
-2.08092
-2.2687
-2.43898
-2.58694
-2.71038
-0.108948
-0.327705
-0.549003
-0.774377
-1.0051
-1.24204
-1.48538
-1.73438
-1.98698
-2.23939
-2.4858
-2.71836
-2.92784
-3.10536
-3.24542
-0.123741
-0.372359
-0.624356
-0.881859
-1.14678
-1.42062
-1.70426
-1.99751
-2.29857
-2.60331
-2.90447
-3.19105
-3.44859
-3.66119
-3.81639
-0.13739
-0.413617
-0.694171
-0.981883
-1.27946
-1.58935
-1.91347
-2.25275
-2.6064
-2.97074
-3.33763
-3.6927
-4.01419
-4.27435
-4.44651
-0.149586
-0.450526
-0.756792
-1.07199
-1.39977
-1.74378
-2.10743
-2.49355
-2.90346
-3.33552
-3.78252
-4.22785
-4.64101
-4.9754
-5.17578
-0.160004
-0.482084
-0.810443
-1.14946
-1.5038
-1.87848
-2.27886
-2.71046
-3.17829
-3.68529
-4.229
-4.79506
-5.34646
-5.81024
-6.07509
-0.16834
-0.507338
-0.853395
-1.21156
-1.58743
-1.9874
-2.419
-2.89107
-3.41386
-3.99826
-4.65301
-5.37678
-6.13929
-6.84369
-7.27659
-0.174349
-0.52551
-0.884196
-1.2559
-1.64687
-2.06464
-2.51857
-3.02087
-3.58773
-4.24078
-5.00785
-5.91952
-6.9899
-8.14824
-9.05013
-0.177885
-0.536128
-0.901939
-1.28089
-1.67946
-2.10561
-2.56971
-3.08604
-3.67531
-4.36915
-5.21789
-6.30328
-7.75218
-9.70882
-11.9972
-0.17894
-0.539149
-0.906491
-1.28621
-1.6844
-2.10856
-2.56855
-3.07818
-3.65822
-4.34245
-5.19106
-6.32319
-8.00642
-10.9375
-17.259
31551.1
31513.1
31475.5
31438.2
31401.3
31364.8
31328.8
31293.2
31258
31223.3
31189.1
31155.3
31122.1
31089.4
31057.2
31025.6
30994.5
30963.9
30933.9
30904.4
30875.5
30847
30819.1
30791.7
30764.7
30738.3
30712.2
30686.6
30661.3
30636.5
30612
30587.8
30563.8
30540.2
30516.8
30493.7
30470.7
30447.9
30425.3
30402.8
30380.4
30358.1
30335.9
30313.7
30291.6
30269.5
30247.3
30225.2
30202.9
30180.7
30158.3
30135.8
30113.2
30090.4
30067.5
30044.3
30021
29997.3
29973.4
29949.2
29924.8
29899.9
29874.8
29849.2
29823.3
29797.1
29770.4
29743.3
29715.7
29687.8
29659.4
29630.5
29601.3
29571.5
29541.3
29510.7
29479.5
29448
29415.9
29383.4
29350.4
29317
29283.1
29248.8
29214
29178.8
29143.2
29107.1
29070.6
29033.6
-0.754289
-0.781429
-0.808149
-0.835307
-0.86364
-0.893623
-0.925353
-0.958497
-0.992314
-1.02576
-1.05761
-1.08666
-1.11184
-1.13232
-1.14752
-1.1571
-1.16087
-1.15876
-1.15075
-1.13684
-1.11714
-1.09182
-1.06118
-1.02565
-0.985783
-0.94218
-0.89549
-0.846359
-0.795422
-0.743288
-0.690533
-0.637681
-0.585179
-0.533376
-0.482512
-0.432725
-0.384075
-0.336576
-0.290228
-0.245023
-0.200936
-0.157894
-0.115745
-0.0742334
-0.0330032
0.00836716
0.0503102
0.0932028
0.137307
0.182733
0.229425
0.277182
0.325689
0.374552
0.42333
0.471559
0.518766
0.564494
0.608325
0.649918
0.689033
0.725539
0.759405
0.790663
0.819368
0.845554
0.869224
0.890356
0.908935
0.924986
0.9386
0.949927
0.959149
0.966434
0.971906
0.975622
0.977594
0.977823
0.976343
0.973241
0.968641
0.962663
0.955349
0.946599
0.936144
0.923549
0.908269
0.889733
0.867441
0.841042
-1.25904
-1.30297
-1.34616
-1.39025
-1.43671
-1.48652
-1.53993
-1.59634
-1.65437
-1.71204
-1.76705
-1.81718
-1.86048
-1.89554
-1.92143
-1.93768
-1.9441
-1.94063
-1.92724
-1.90393
-1.8708
-1.82811
-1.77636
-1.71629
-1.64887
-1.57518
-1.49633
-1.41343
-1.32757
-1.23976
-1.15101
-1.06221
-0.974152
-0.887435
-0.802446
-0.719376
-0.638272
-0.559115
-0.481887
-0.406594
-0.333239
-0.261757
-0.191924
-0.123311
-0.0552718
0.0129843
0.0822834
0.153348
0.226675
0.302463
0.380596
0.460687
0.542153
0.624288
0.706322
0.787452
0.866856
0.943726
1.01732
1.08702
1.15242
1.21331
1.2697
1.32171
1.36949
1.41312
1.45261
1.48785
1.51876
1.54537
1.56782
1.58641
1.60151
1.61346
1.62248
1.62866
1.63194
1.63227
1.62967
1.6243
1.61646
1.60644
1.59442
1.58028
1.56356
1.54344
1.51889
1.48882
1.45226
1.40852
-1.76704
-1.8255
-1.88274
-1.94165
-2.00484
-2.07412
-2.15006
-2.23174
-2.31684
-2.402
-2.48341
-2.55738
-2.62088
-2.67182
-2.70908
-2.73229
-2.74145
-2.73665
-2.71788
-2.68505
-2.63812
-2.57734
-2.5034
-2.41742
-2.3209
-2.2155
-2.1029
-1.9847
-1.86243
-1.73753
-1.61147
-1.48561
-1.36115
-1.23896
-1.11958
-1.00317
-0.889645
-0.778867
-0.670758
-0.565378
-0.462862
-0.363267
-0.266383
-0.171604
-0.077907
0.0160366
0.111642
0.210153
0.312409
0.418716
0.528838
0.642096
0.757525
0.874032
0.990473
1.10568
1.21843
1.32751
1.43174
1.53014
1.62209
1.70736
1.78609
1.85863
1.92536
1.98646
2.04187
2.09133
2.13457
2.17151
2.20236
2.22768
2.24816
2.26445
2.27693
2.28562
2.2903
2.29069
2.28674
2.2787
2.26718
2.25288
2.23631
2.21746
2.19564
2.1695
2.13726
2.09704
2.04721
1.98661
-2.28059
-2.34981
-2.41697
-2.48692
-2.56423
-2.65219
-2.75197
-2.86225
-2.97923
-3.09741
-3.21052
-3.31269
-3.39938
-3.46782
-3.517
-3.54713
-3.5589
-3.55279
-3.52879
-3.48646
-3.42537
-3.34553
-3.24776
-3.13373
-3.0057
-2.86616
-2.7175
-2.56182
-2.40101
-2.23695
-2.07161
-1.90696
-1.7448
-1.5864
-1.43238
-1.28273
-1.137
-0.9947
-0.85562
-0.719955
-0.588193
-0.460781
-0.337715
-0.218242
-0.100797
0.0167983
0.136925
0.261675
0.392422
0.529594
0.672687
0.820498
0.971472
1.124
1.27653
1.42755
1.57544
1.71841
1.85467
1.9827
2.10153
2.21097
2.31152
2.40407
2.48947
2.56813
2.63983
2.70391
2.7596
2.80653
2.84501
2.87604
2.90098
2.92106
2.93693
2.94847
2.95493
2.9555
2.94979
2.93822
2.922
2.90269
2.88159
2.85903
2.83405
2.80443
2.76719
2.71918
2.65772
2.58095
-2.80316
-2.87701
-2.94713
-3.02157
-3.10827
-3.2132
-3.33879
-3.48309
-3.63993
-3.80013
-3.95337
-4.0903
-4.20414
-4.29155
-4.35235
-4.38843
-4.40209
-4.3947
-4.36609
-4.3149
-4.23961
-4.13952
-4.01555
-3.87018
-3.70705
-3.52996
-3.34221
-3.14631
-2.94427
-2.73822
-2.53073
-2.32473
-2.12301
-1.92751
-1.7389
-1.55663
-1.37939
-1.20588
-1.03555
-0.868893
-0.707241
-0.552018
-0.403852
-0.261939
-0.123882
0.0139364
0.155575
0.304584
0.46321
0.631977
0.809774
0.994381
1.18322
1.37399
1.5648
1.75398
1.93955
2.11901
2.28951
2.44853
2.59452
2.72742
2.84851
2.95985
3.06334
3.15985
3.24883
3.32861
3.39728
3.45376
3.49844
3.53323
3.56085
3.58379
3.60324
3.61867
3.62812
3.62942
3.62135
3.60451
3.58131
3.55515
3.52902
3.50414
3.47918
3.45041
3.41268
3.36077
3.29034
3.19854
-3.34084
-3.40963
-3.47108
-3.53862
-3.62613
-3.74457
-3.89881
-4.08602
-4.29593
-4.51301
-4.71989
-4.90131
-5.04713
-5.15375
-5.22346
-5.26215
-5.27576
-5.26732
-5.23603
-5.1782
-5.08967
-4.96806
-4.81424
-4.63234
-4.42859
-4.20921
-3.97875
-3.73969
-3.49338
-3.24163
-2.98774
-2.73638
-2.4923
-2.2587
-2.03629
-1.82327
-1.61638
-1.41247
-1.21015
-1.01057
-0.816959
-0.633007
-0.460886
-0.299972
-0.146498
0.00571019
0.163758
0.333806
0.519569
0.721548
0.937265
1.16239
1.39244
1.62415
1.8557
2.08589
2.31275
2.53278
2.74121
2.93342
3.10671
3.26121
3.39989
3.52728
3.64761
3.76277
3.87146
3.96969
4.0529
4.11836
4.16652
4.20114
4.22787
4.25193
4.27576
4.29785
4.31347
4.31722
4.30592
4.28034
4.2453
4.20796
4.17503
4.14975
4.13017
4.10962
4.07894
4.02934
3.95403
3.84884
-3.90438
-3.95281
-3.98627
-4.02694
-4.09948
-4.22445
-4.41144
-4.65639
-4.94175
-5.24074
-5.52322
-5.76375
-5.94675
-6.06925
-6.13943
-6.17216
-6.18132
-6.17303
-6.14436
-6.08587
-5.98751
-5.84313
-5.65351
-5.42612
-5.17276
-4.90455
-4.62779
-4.34362
-4.05042
-3.74822
-3.44118
-3.1376
-2.84655
-2.57384
-2.32019
-2.08111
-1.8491
-1.61677
-1.3808
-1.14361
-0.912735
-0.696906
-0.501713
-0.327202
-0.167192
-0.0108148
0.154785
0.340531
0.552725
0.791498
1.05139
1.32351
1.59948
1.87478
2.14883
2.42285
2.69607
2.96356
3.21655
3.44589
3.64626
3.81813
3.96788
4.10526
4.23967
4.3754
4.50953
4.63278
4.73451
4.80827
4.85451
4.88086
4.89915
4.92084
4.95123
4.98679
5.01637
5.02716
5.01151
4.97024
4.91303
4.85485
4.81049
4.78756
4.78302
4.78382
4.77285
4.73531
4.6611
4.5448
-4.51328
-4.51747
-4.491
-4.4692
-4.49715
-4.61482
-4.84045
-5.1684
-5.56783
-5.99211
-6.38685
-6.70893
-6.93338
-7.06
-7.10919
-7.11603
-7.11188
-7.10799
-7.09552
-7.05088
-6.95152
-6.78327
-6.54706
-6.25723
-5.93824
-5.61211
-5.28743
-4.96045
-4.62035
-4.26169
-3.88956
-3.52072
-3.17431
-2.86146
-2.58303
-2.32871
-2.08219
-1.82628
-1.55313
-1.26754
-0.986812
-0.731066
-0.512734
-0.33353
-0.182634
-0.0406095
0.1168
0.309153
0.547581
0.830998
1.14787
1.47902
1.80747
2.12718
2.44195
2.76093
3.08758
3.41519
3.72588
4
4.22678
4.40686
4.55363
4.68746
4.82973
4.99027
5.16316
5.32676
5.45632
5.53773
5.57104
5.57208
5.56545
5.57716
5.61915
5.68425
5.74622
5.77508
5.7539
5.68302
5.58211
5.48178
5.41502
5.39884
5.42811
5.47492
5.50495
5.49404
5.42872
5.30445
-5.20335
-5.12602
-4.9887
-4.83944
-4.76515
-4.84912
-5.12143
-5.57676
-6.15742
-6.78531
-7.35442
-7.79401
-8.06017
-8.16154
-8.13925
-8.07503
-8.04139
-8.05463
-8.09232
-8.09401
-8.01409
-7.82065
-7.51722
-7.12973
-6.71339
-6.31705
-5.94984
-5.59567
-5.21648
-4.79409
-4.33275
-3.87112
-3.45334
-3.09918
-2.81085
-2.56476
-2.32857
-2.06038
-1.7432
-1.38435
-1.02483
-0.711324
-0.467439
-0.299161
-0.18541
-0.0927164
0.0282871
0.211158
0.477322
0.821923
1.22336
1.63791
2.02749
2.38609
2.72838
3.08729
3.47704
3.89047
4.28707
4.62149
4.87366
5.04266
5.15709
5.25652
5.39249
5.58633
5.8291
6.06864
6.24631
6.33528
6.33284
6.27316
6.20414
6.18864
6.25255
6.38501
6.52251
6.59385
6.56661
6.43782
6.24912
6.05919
5.94555
5.9435
6.04682
6.18906
6.29492
6.33009
6.2802
6.15336
-6.0405
-5.82047
-5.50313
-5.10122
-4.80471
-4.81158
-5.1381
-5.80378
-6.67808
-7.66218
-8.50754
-9.12785
-9.42328
-9.44016
-9.22873
-8.98898
-8.90243
-8.9651
-9.14002
-9.25371
-9.23921
-9.01551
-8.60752
-8.04293
-7.45892
-6.97922
-6.59269
-6.26619
-5.87412
-5.3819
-4.77567
-4.15775
-3.64017
-3.24156
-2.97737
-2.78615
-2.62064
-2.36472
-1.99302
-1.50187
-0.996444
-0.591226
-0.313259
-0.186349
-0.158004
-0.185803
-0.149592
-0.00712821
0.293702
0.730524
1.27938
1.83211
2.29144
2.66766
2.99003
3.36834
3.83141
4.38898
4.93676
5.3603
5.63909
5.75579
5.78081
5.77159
5.87054
6.11044
6.49823
6.89806
7.16246
7.26282
7.1754
6.98598
6.76406
6.68403
6.78547
7.07675
7.3923
7.55277
7.5238
7.27712
6.91616
6.52501
6.3137
6.33474
6.60782
6.95398
7.1851
7.28709
7.24105
7.12872
-7.14871
-6.6545
-6.13892
-5.21095
-4.40739
-4.31396
-4.66669
-5.73069
-7.04096
-8.73918
-9.98506
-10.9298
-11.1879
-11.0479
-10.3593
-9.68269
-9.54895
-9.7143
-10.2763
-10.5984
-10.766
-10.4761
-9.92366
-8.9844
-8.05455
-7.50749
-7.14938
-7.0314
-6.67624
-6.13413
-5.23567
-4.3001
-3.65582
-3.19053
-3.03894
-2.97069
-3.04306
-2.83588
-2.41493
-1.63999
-0.823742
-0.287825
0.0585157
0.06845
-0.0497002
-0.371016
-0.480405
-0.453357
-0.0855806
0.478023
1.33012
2.16115
2.67543
3.02719
3.17151
3.52774
4.05013
4.90205
5.76589
6.30813
6.63853
6.60152
6.45446
6.13147
6.14626
6.42223
7.15069
7.92324
8.31557
8.46155
8.16563
7.74639
7.12046
6.9189
7.04588
7.73438
8.48625
8.78538
8.79539
8.28187
7.62756
6.73279
6.34816
6.36393
7.06448
7.88542
8.26208
8.45809
8.29824
8.2902
-8.80091
-7.51909
-7.36847
-5.14132
-2.98716
-3.17354
-3.17079
-5.30277
-6.84496
-10.4674
-11.896
-13.7206
-13.5253
-13.4454
-11.4725
-9.59443
-9.76462
-9.89219
-11.7577
-12.1653
-12.9514
-12.3146
-11.7967
-9.91219
-8.09878
-7.76355
-7.36012
-8.13801
-7.74739
-7.39933
-5.74895
-4.02286
-3.41357
-2.68766
-2.98033
-2.95264
-3.8679
-3.61477
-3.34649
-1.83753
-0.247295
0.288617
0.914773
0.507751
0.351186
-0.861396
-1.00772
-1.39028
-0.746934
-0.189974
1.41109
2.94623
3.29336
3.68536
3.04779
3.4478
3.79423
5.39784
7.05798
7.5609
8.16694
7.60559
7.3813
6.00478
6.04572
6.08227
7.73948
9.49575
9.82322
10.2964
9.33325
8.80423
6.86558
6.68046
6.49747
8.30055
10.2319
10.4341
10.8207
9.4892
8.68507
6.20581
5.80591
5.40692
7.34764
9.45654
9.59912
10.1415
9.1368
9.78111
-11.9728
-6.75467
-11.5879
-4.96625
1.80388
-2.30487
1.39978
-5.72344
-3.65275
-15.3539
-13.2358
-19.4192
-15.696
-18.5681
-12.4485
-6.55585
-10.0409
-7.56673
-15.3376
-13.1867
-17.1849
-13.9812
-15.6368
-10.737
-6.01375
-8.11713
-5.86912
-10.9266
-8.7567
-10.5393
-6.37073
-2.13688
-3.33869
-0.717578
-3.38259
-1.57632
-6.37486
-4.41518
-6.06437
-2.1519
1.8476
0.735289
3.25891
0.586483
2.27272
-2.88724
-1.19504
-3.8047
-1.28421
-2.36182
1.5866
5.44164
3.84626
5.82556
1.42939
3.44439
1.72736
5.81152
10.0158
8.66443
11.3755
8.12348
9.96642
3.83604
5.95045
3.40753
8.1845
13.1246
11.1198
14.1985
9.87448
11.8907
4.08435
6.4377
3.08784
8.68067
14.4663
11.8161
15.3185
9.93588
12.1535
2.6833
5.26115
1.07951
7.38748
13.858
10.3593
14.0515
7.59966
12.4055
-22.6264
8.48419
-32.302
-5.00453
22.2607
-12.6874
21.5626
-19.3832
19.371
-40.14
-2.6215
-39.383
-8.36923
-36.6386
-13.0976
9.98676
-18.8982
9.5117
-33.2048
-5.35344
-31.7892
-8.65012
-28.9169
-11.3073
5.90176
-14.7366
6.142
-24.1228
-4.07427
-22.249
-7.08639
7.57666
-8.76867
8.86476
-10.2234
9.3111
-18.6137
-0.018793
-16.7911
-2.59151
11.3037
-4.05362
13.0856
-5.61117
14.0529
-14.7803
4.8123
-13.6067
3.35972
-11.7713
1.89661
15.7858
-0.748327
17.1465
-9.42118
8.81505
-8.69333
6.05227
20.9737
3.9181
23.1712
1.30457
24.0331
-10.2053
12.5616
-9.80798
8.39452
26.7541
5.09626
28.7606
1.28569
29.1215
-13.3269
14.4075
-13.1993
8.78303
30.8484
4.33826
32.6107
-0.561734
32.4522
-18.1883
14.4501
-18.3528
7.19337
32.6149
0.764904
32.5689
-10.1484
22.208
28992.6
28947.3
28901.4
28855.1
28808.3
28761.1
28713.6
28665.7
28617.5
28569.1
28520.4
28471.6
28422.7
28373.6
28324.6
0.807319
0.764475
0.716124
0.663167
0.606715
0.547932
0.487902
0.427536
0.367525
0.308329
0.250191
0.193167
0.137159
0.0819543
0.0272602
1.35218
1.28015
1.19857
1.10909
1.01373
0.914571
0.813519
0.712148
0.611624
0.512699
0.415745
0.320814
0.227702
0.136017
0.0452364
1.90753
1.80531
1.68884
1.56083
1.42447
1.28303
1.13938
0.995845
0.854066
0.715051
0.579241
0.446618
0.316805
0.189168
0.0629006
2.47881
2.34471
2.19065
2.02087
1.84027
1.65364
1.46508
1.27772
1.09368
0.914146
0.739513
0.569585
0.403713
0.240938
0.0800943
3.0728
2.90407
2.70819
2.49173
2.26209
2.02613
1.7895
1.5562
1.32872
1.10827
0.895025
0.688455
0.4875
0.290761
0.0966274
3.69849
3.49076
3.24642
2.9759
2.69029
2.39937
2.11058
1.8288
1.55666
1.29509
1.0438
0.80166
0.567036
0.33796
0.112274
4.36812
4.11423
3.811
3.47529
3.12396
2.77062
2.42474
2.09176
1.77399
1.47157
1.18334
0.907289
0.640983
0.381742
0.126772
5.0988
4.78695
4.408
3.99029
3.55967
3.13459
2.72618
2.33961
1.97595
1.63383
1.31063
1.00311
0.707817
0.421224
0.139832
5.91617
5.5261
5.04319
4.51773
3.98943
3.4818
3.0059
2.56467
2.1564
1.77715
1.42218
1.08666
0.765902
0.455474
0.151152
6.86381
6.35714
5.72019
5.04735
4.39769
3.79676
3.25083
2.75681
2.30786
1.89617
1.51425
1.15539
0.813612
0.483589
0.160443
8.02984
7.319
6.43344
5.55424
4.75686
4.05623
3.44357
2.90382
2.42206
1.98539
1.58323
1.20699
0.849526
0.504803
0.167462
9.62275
8.45557
7.14002
5.97984
5.01942
4.22753
3.56324
2.99279
2.49111
2.04004
1.62626
1.23974
0.872657
0.518605
0.172053
12.2088
9.73982
7.69033
6.20529
5.11317
4.27102
3.58898
3.01293
2.50953
2.05736
1.64195
1.253
0.882712
0.524876
0.174183
17.0491
10.6042
7.67636
6.03764
4.95656
4.1541
3.50864
2.9604
2.47669
2.03786
1.63113
1.24751
0.880266
0.523969
0.173972
-0.177929
-0.535868
-0.900164
-1.27543
-1.66691
-2.08092
-2.52547
-3.01141
-3.55443
-4.17914
-4.928
-5.88294
-7.22417
-9.40749
-13.7419
-0.175398
-0.527969
-0.885929
-1.25309
-1.63361
-2.03219
-2.4543
-2.90646
-3.3965
-3.93344
-4.52577
-5.17145
-5.81116
-6.11215
-4.44923
-0.171627
-0.516303
-0.865266
-1.22142
-1.5877
-1.96706
-2.36221
-2.77516
-3.20589
-3.64914
-4.08633
-4.46397
-4.63331
-4.18013
-1.98399
-0.166858
-0.501634
-0.839569
-1.18266
-1.53267
-1.89091
-2.25772
-2.63146
-3.00648
-3.36886
-3.68808
-3.90118
-3.88758
-3.45829
-2.55174
-0.161343
-0.484748
-0.810251
-1.13903
-1.47186
-1.80876
-2.14836
-2.48682
-2.81572
-3.11831
-3.36333
-3.49591
-3.43011
-3.06782
-2.4691
-0.15532
-0.466379
-0.778617
-1.09254
-1.40817
-1.72466
-2.03976
-2.3488
-2.64312
-2.90752
-3.11641
-3.22853
-3.17818
-2.84143
-1.83508
-0.148998
-0.447166
-0.74577
-1.04481
-1.34381
-1.64148
-1.93533
-2.22096
-2.49123
-2.73507
-2.93641
-3.07401
-3.12488
-3.07989
-3.0508
-0.142548
-0.427625
-0.712575
-0.997053
-1.28029
-1.56089
-1.83655
-2.10376
-2.35763
-2.59199
-2.80041
-2.97968
-3.13793
-3.30715
-3.53638
-0.136101
-0.408147
-0.679667
-0.950097
-1.21855
-1.48367
-1.74356
-1.99577
-2.23755
-2.4668
-2.68444
-2.89984
-3.14318
-3.49254
-4.14559
-0.129754
-0.389012
-0.647478
-0.904461
-1.15904
-1.41
-1.65584
-1.89495
-2.1261
-2.34959
-2.56985
-2.80046
-3.07463
-3.46684
-4.15352
-0.123571
-0.370405
-0.616281
-0.860444
-1.10198
-1.33981
-1.57272
-1.79959
-2.01988
-2.23454
-2.4479
-2.67071
-2.92394
-3.23645
-3.59458
-0.117595
-0.352443
-0.586239
-0.818202
-1.04744
-1.27296
-1.49371
-1.70874
-1.91748
-2.12027
-2.31926
-2.5197
-2.73189
-2.9742
-3.28924
-0.11185
-0.33519
-0.557437
-0.777803
-0.995426
-1.20936
-1.41861
-1.62218
-1.81911
-2.00853
-2.18947
-2.36043
-2.51876
-2.66127
-2.78355
-0.106346
-0.318676
-0.529907
-0.739264
-0.945913
-1.14895
-1.34739
-1.54014
-1.72587
-1.90255
-2.06647
-2.20981
-2.31645
-2.36224
-2.38639
-0.101087
-0.302906
-0.503647
-0.702562
-0.898853
-1.09167
-1.28006
-1.46292
-1.63881
-1.80531
-1.95763
-2.08456
-2.15624
-2.07808
-1.47805
-0.0960689
-0.287864
-0.478625
-0.667637
-0.854157
-1.03739
-1.21649
-1.39049
-1.55818
-1.71781
-1.86628
-1.99759
-2.09992
-2.1562
-2.2058
-0.0912821
-0.273522
-0.454784
-0.634402
-0.811689
-0.985933
-1.1564
-1.32236
-1.48308
-1.63794
-1.78672
-1.93065
-2.07544
-2.23883
-2.45945
-0.0867142
-0.25984
-0.432056
-0.602745
-0.771282
-0.937035
-1.09939
-1.25781
-1.41197
-1.56218
-1.71039
-1.863
-2.0379
-2.28158
-2.71008
-0.0823504
-0.246773
-0.410358
-0.572542
-0.732758
-0.89044
-1.04505
-1.19615
-1.34354
-1.48771
-1.63088
-1.77978
-1.95245
-2.19582
-2.63671
-0.0781741
-0.234269
-0.389604
-0.543667
-0.695945
-0.845923
-0.993095
-1.137
-1.27727
-1.41383
-1.54729
-1.67993
-1.81779
-1.97274
-2.14607
-0.074168
-0.222277
-0.369705
-0.515995
-0.660683
-0.803299
-0.943351
-1.0803
-1.21351
-1.34201
-1.46414
-1.57636
-1.67112
-1.73677
-1.80621
-0.070314
-0.210742
-0.35057
-0.489397
-0.626815
-0.762404
-0.895704
-1.02615
-1.15293
-1.27454
-1.38777
-1.48485
-1.54452
-1.49807
-1.073
-0.0665935
-0.199608
-0.332105
-0.463742
-0.594174
-0.723049
-0.849982
-0.974499
-1.09588
-1.21279
-1.3225
-1.41924
-1.4915
-1.52219
-1.53479
-0.0629876
-0.188817
-0.314212
-0.438889
-0.562571
-0.684993
-0.805888
-0.924969
-1.04186
-1.15595
-1.26612
-1.37055
-1.46724
-1.55876
-1.67187
-0.0594777
-0.178313
-0.296793
-0.414692
-0.531803
-0.64795
-0.763004
-0.876908
-0.989726
-1.10173
-1.21363
-1.32717
-1.44645
-1.58024
-1.74443
-0.0560461
-0.168042
-0.279755
-0.391011
-0.501665
-0.611622
-0.720869
-0.829551
-0.938099
-1.04751
-1.1599
-1.27971
-1.41547
-1.58048
-1.78059
-0.0526765
-0.157954
-0.26301
-0.367716
-0.471973
-0.575741
-0.679081
-0.782239
-0.885818
-0.991127
-1.10093
-1.2211
-1.36406
-1.55624
-1.85555
-0.0493548
-0.148006
-0.246487
-0.344702
-0.442583
-0.540116
-0.637372
-0.734585
-0.83228
-0.93155
-1.03468
-1.14658
-1.27838
-1.45751
-1.76328
-0.0460693
-0.138163
-0.230128
-0.321891
-0.4134
-0.504641
-0.59565
-0.68655
-0.777591
-0.869222
-0.962248
-1.05816
-1.15972
-1.27071
-1.38016
-0.0428104
-0.128398
-0.213889
-0.299228
-0.38437
-0.469287
-0.553961
-0.638373
-0.722436
-0.805852
-0.887731
-0.965737
-1.03443
-1.0849
-1.13507
-0.0395704
-0.118688
-0.197736
-0.276674
-0.355463
-0.434063
-0.512416
-0.590393
-0.66768
-0.743481
-0.815822
-0.879725
-0.92171
-0.899199
-0.64647
-0.0363428
-0.109014
-0.181641
-0.254198
-0.326656
-0.398977
-0.471092
-0.542853
-0.613906
-0.683447
-0.749693
-0.808882
-0.853687
-0.873304
-0.880185
-0.0331217
-0.0993586
-0.165577
-0.231766
-0.297912
-0.363997
-0.42998
-0.495765
-0.561136
-0.625636
-0.688387
-0.747979
-0.803071
-0.85619
-0.929795
-0.0299013
-0.0897057
-0.149516
-0.209339
-0.269182
-0.329056
-0.388969
-0.448927
-0.508928
-0.56898
-0.629199
-0.690147
-0.753746
-0.824773
-0.910535
-0.0266763
-0.0800383
-0.13343
-0.186875
-0.240403
-0.294055
-0.347894
-0.402025
-0.456644
-0.512154
-0.569432
-0.630416
-0.699188
-0.783047
-0.89075
-0.0234414
-0.0703406
-0.117291
-0.164331
-0.21151
-0.258893
-0.306583
-0.354749
-0.403702
-0.454049
-0.507026
-0.565222
-0.634082
-0.724688
-0.858195
-0.0201919
-0.0605982
-0.101074
-0.14167
-0.182448
-0.223489
-0.264909
-0.306892
-0.349754
-0.394069
-0.440933
-0.49257
-0.553804
-0.636466
-0.777987
-0.0169237
-0.0507988
-0.084758
-0.118862
-0.153179
-0.187793
-0.222812
-0.258391
-0.294759
-0.332268
-0.371467
-0.413204
-0.45858
-0.507299
-0.544298
-0.0136335
-0.0409324
-0.0683277
-0.0958866
-0.12368
-0.151788
-0.180298
-0.209312
-0.238935
-0.269244
-0.300181
-0.331268
-0.360968
-0.386209
-0.412682
-0.0103184
-0.0309908
-0.0517705
-0.0727297
-0.0939413
-0.115478
-0.137406
-0.159779
-0.182599
-0.205738
-0.228736
-0.250257
-0.266392
-0.264213
-0.193041
-0.00697587
-0.0209668
-0.0350756
-0.0493799
-0.063955
-0.0788702
-0.0941805
-0.109909
-0.126008
-0.142285
-0.158265
-0.17295
-0.184475
-0.19008
-0.192053
-0.0036035
-0.0108535
-0.0182325
-0.025825
-0.0337117
-0.0419649
-0.0506394
-0.0597541
-0.069261
-0.078997
-0.0886431
-0.097802
-0.106614
-0.118426
-0.151667
-0.000198788
-0.000643451
-0.0012294
-0.00204956
-0.00319374
-0.00474446
-0.00676863
-0.00930243
-0.012326
-0.015731
-0.0193093
-0.02286
-0.0266167
-0.0318407
-0.0374988
0.00324098
0.00967158
0.0159477
0.0219665
0.0276257
0.0328266
0.0374791
0.0415133
0.0449013
0.0476925
0.0500536
0.0522638
0.0544484
0.0550959
0.0416907
0.00671867
0.0201004
0.0333144
0.046247
0.0587819
0.0707994
0.0821784
0.092801
0.102569
0.111449
0.119565
0.127443
0.136629
0.151841
0.190509
0.0102371
0.0306519
0.0508868
0.070818
0.0903147
0.109236
0.127425
0.144705
0.160881
0.175768
0.189284
0.201749
0.214672
0.232345
0.260911
0.0137989
0.0413343
0.06868
0.0957041
0.122264
0.1482
0.173323
0.197397
0.220114
0.241073
0.259772
0.275769
0.289461
0.305333
0.343663
0.0174061
0.0521539
0.086706
0.120925
0.154662
0.187747
0.219969
0.251051
0.280595
0.307979
0.332176
0.351421
0.362778
0.362768
0.35854
0.02106
0.0631148
0.104972
0.146493
0.187529
0.227909
0.267424
0.305794
0.342598
0.377129
0.408054
0.432577
0.444032
0.423167
0.296645
0.0247609
0.0742181
0.12348
0.17241
0.220866
0.268688
0.315692
0.361642
0.406203
0.448814
0.488413
0.522833
0.547769
0.556972
0.558917
0.0285083
0.085462
0.142225
0.198668
0.254657
0.310051
0.364707
0.418473
0.471182
0.522618
0.572405
0.619697
0.66247
0.695846
0.703689
0.0323012
0.0968427
0.161201
0.225252
0.288872
0.351942
0.414356
0.476054
0.537064
0.597595
0.658162
0.719724
0.783734
0.852488
0.93613
0.0361378
0.108355
0.180397
0.252145
0.323483
0.3943
0.464517
0.534127
0.603297
0.672572
0.743261
0.818077
0.901736
0.998825
1.09074
0.0400162
0.119993
0.199804
0.279333
0.358466
0.437089
0.515114
0.59252
0.669474
0.746588
0.825523
0.910314
1.01045
1.14879
1.388
0.0439342
0.131751
0.219412
0.306805
0.393813
0.480306
0.566153
0.651242
0.735554
0.819363
0.903746
0.99192
1.09265
1.22875
1.45572
0.0478892
0.143621
0.239211
0.334554
0.429527
0.523984
0.617731
0.710516
0.802001
0.89176
0.979363
1.06483
1.15033
1.24564
1.37944
0.0518775
0.155593
0.259187
0.362565
0.46561
0.568163
0.669988
0.770704
0.869661
0.965673
1.05649
1.13773
1.20122
1.23582
1.26412
0.0558942
0.167653
0.279318
0.390814
0.502043
0.612858
0.723023
0.832125
0.93938
1.04321
1.14028
1.22299
1.27219
1.23039
0.876337
0.0599325
0.17978
0.29957
0.419256
0.53877
0.658011
0.776806
0.894838
1.01149
1.12547
1.23407
1.33153
1.40638
1.44184
1.45983
0.0639842
0.191948
0.319898
0.447821
0.575694
0.703482
0.831127
0.95852
1.08545
1.21148
1.33562
1.4558
1.56794
1.66544
1.73415
0.0680394
0.204129
0.34025
0.476425
0.612681
0.749058
0.885627
1.02253
1.16006
1.2988
1.43994
1.58564
1.7397
1.90904
2.11554
0.0720878
0.216289
0.360566
0.504976
0.649589
0.794507
0.939902
1.08611
1.23382
1.38448
1.54111
1.7097
1.90085
2.12686
2.36221
0.0761194
0.228397
0.380791
0.533389
0.686289
0.839627
0.993616
1.14865
1.30553
1.46602
1.63399
1.81811
2.03781
2.33822
2.83678
0.0801244
0.240424
0.400877
0.561593
0.722687
0.884298
1.04661
1.20991
1.37475
1.54237
1.71567
1.90182
2.11874
2.41198
2.8973
0.0840942
0.252345
0.420782
0.589534
0.758727
0.928484
1.09891
1.27009
1.44204
1.61477
1.78844
1.96415
2.14669
2.35236
2.61858
0.0880209
0.264136
0.440469
0.617169
0.794375
0.972204
1.1507
1.32973
1.50879
1.68652
1.85979
2.02174
2.15858
2.2507
2.33961
0.0918968
0.275774
0.459901
0.64445
0.829589
1.01546
1.20211
1.38936
1.57646
1.76137
1.939
2.09677
2.20154
2.15128
1.54978
0.0957148
0.287236
0.479038
0.671319
0.864291
1.05816
1.2531
1.44908
1.64566
1.84128
2.032
2.20861
2.35216
2.43465
2.4947
0.0994684
0.298503
0.497839
0.697704
0.898364
1.10013
1.30335
1.50839
1.7155
1.9246
2.13478
2.34338
2.54518
2.73361
2.9025
0.103153
0.309558
0.516269
0.723533
0.931663
1.14107
1.35233
1.56624
1.78394
2.00716
2.23865
2.48288
2.74746
3.04614
3.41511
0.106769
0.320397
0.53431
0.748754
0.964064
1.18073
1.39947
1.62145
1.84853
2.08398
2.33365
2.60824
2.92605
3.30984
3.73323
0.110321
0.331034
0.551977
0.773366
0.995516
1.21892
1.44435
1.67309
1.9073
2.1509
2.41134
2.70356
3.05879
3.54603
4.33646
0.113822
0.341507
0.569329
0.797438
1.02609
1.25569
1.48693
1.72091
1.95953
2.20609
2.46693
2.75509
3.09984
3.57164
4.35201
0.117295
0.351881
0.586473
0.821126
1.05598
1.29131
1.52757
1.7655
2.00622
2.25136
2.50352
2.76729
3.05263
3.38294
3.79448
0.120767
0.362244
0.603565
0.844662
1.08553
1.32626
1.56703
1.80814
2.0498
2.29173
2.53201
2.7645
2.97414
3.13779
3.31766
0.124276
0.37271
0.620801
0.868342
1.11516
1.36115
1.60625
1.85037
2.09317
2.3332
2.56587
2.77754
2.92757
2.88132
2.0984
0.127863
0.383408
0.638409
0.892506
1.14535
1.39664
1.64611
1.8935
2.13841
2.37976
2.61429
2.83334
3.01725
3.1364
3.24987
0.131574
0.394476
0.65663
0.917518
1.17661
1.43338
1.68738
1.93831
2.18611
2.43101
2.6734
2.91349
3.15185
3.39537
3.67657
0.135454
0.406055
0.675716
0.943758
1.20944
1.47201
1.73075
1.98525
2.23577
2.48396
2.73404
2.99479
3.28281
3.6281
4.0876
0.139544
0.418276
0.69591
0.971612
1.24442
1.51326
1.77703
2.03492
2.28701
2.53555
2.78722
3.05709
3.37394
3.78145
4.29813
0.143877
0.431249
0.717427
1.00145
1.28213
1.55799
1.82736
2.08858
2.34068
2.5849
2.82769
3.08669
3.40203
3.85891
4.64028
0.14847
0.445038
0.74042
1.03358
1.32314
1.6072
1.88331
2.14851
2.39976
2.63517
2.85684
3.07709
3.33173
3.71093
4.45401
0.153317
0.459638
0.764931
1.06819
1.36793
1.66188
1.94679
2.21808
2.4698
2.69492
2.88688
3.04355
3.17485
3.31014
3.45402
0.158376
0.474938
0.790827
1.10522
1.41669
1.7228
2.01966
2.30119
2.55824
2.77761
2.94136
3.02754
3.01511
2.90328
2.81371
0.163561
0.49069
0.817734
1.14425
1.46911
1.7901
2.10314
2.40125
2.67279
2.89886
3.04963
3.07993
2.92428
2.48087
1.48166
0.168734
0.506483
0.844981
1.18437
1.52419
1.86286
2.19693
2.5197
2.81886
3.07232
3.24146
3.26138
3.03318
2.44434
1.51349
0.173705
0.521738
0.871575
1.22417
1.58001
1.93876
2.29851
2.65451
2.99661
3.30427
3.53683
3.61504
3.39239
2.6452
1.30521
0.178236
0.535721
0.896222
1.26166
1.63377
2.0139
2.40264
2.79892
3.19821
3.58831
3.93927
4.17753
4.1157
3.25758
0.283372
0.182057
0.547589
0.917406
1.29447
1.68189
2.08302
2.50149
2.9412
3.40614
3.89944
4.41987
4.94827
5.3918
5.33937
2.93253
0.184886
0.556458
0.933521
1.32003
1.72044
2.14004
2.58553
3.06593
3.59437
4.19171
4.8948
5.7777
7.012
9.05636
13.3261
12.9934
8.63756
6.61312
5.41914
4.57774
3.91366
3.3524
2.85746
2.40846
1.99271
1.60153
1.22854
0.868689
0.517764
0.172022
2.22676
4.80725
4.95023
4.56976
4.09143
3.61369
3.15832
2.72802
2.32056
1.93254
1.56047
1.20106
0.851222
0.508091
0.168927
-0.529385
2.66951
3.65069
3.78821
3.60458
3.29806
2.94675
2.58267
2.21911
1.86125
1.51058
1.16688
0.829067
0.495642
0.164912
0.46769
2.07179
2.93687
3.22953
3.20292
3.01342
2.74397
2.43691
2.11366
1.7849
1.45581
1.12858
0.803828
0.481301
0.160261
1.00032
1.98717
2.62044
2.89242
2.91426
2.78421
2.56725
2.30236
2.01197
1.70874
1.39969
1.08851
0.777015
0.465906
0.155242
1.41318
2.14797
2.55475
2.72892
2.73096
2.61525
2.42375
2.18545
1.91914
1.63659
1.34499
1.04861
0.749905
0.450184
0.150091
2.45474
2.5364
2.65049
2.68483
2.62934
2.49884
2.3127
2.08794
1.83753
1.57067
1.29356
1.01029
0.723469
0.434702
0.144993
2.99669
2.90216
2.80147
2.70303
2.57969
2.42098
2.22839
2.00818
1.76731
1.51181
1.24637
0.974412
0.698353
0.419856
0.140083
3.91407
3.27206
2.95078
2.73841
2.55453
2.36656
2.1632
1.94271
1.70719
1.4598
1.20365
0.941343
0.674906
0.405879
0.135442
4.09776
3.4191
3.02435
2.75393
2.53211
2.32274
2.10984
1.88764
1.65525
1.41383
1.16517
0.91111
0.653233
0.392866
0.131105
3.82835
3.36884
3.01149
2.73559
2.50096
2.28131
2.06287
1.83959
1.60955
1.37284
1.13042
0.883495
0.633266
0.380809
0.127075
3.65703
3.24754
2.94197
2.68852
2.45933
2.23896
2.01921
1.7962
1.56843
1.33578
1.09875
0.858146
0.614825
0.369625
0.123328
3.31114
3.05397
2.83616
2.62451
2.41152
2.19611
1.97778