/*--------------------------------*- C++ -*----------------------------------*\
| =========                 |                                                 |
| \\      /  F ield         | OpenFOAM: The Open Source CFD Toolbox           |
|  \\    /   O peration     | Version:  5.x                                   |
|   \\  /    A nd           | Web:      www.OpenFOAM.org                      |
|    \\/     M anipulation  |                                                 |
\*---------------------------------------------------------------------------*/
FoamFile
{
    version     2.0;
    format      ascii;
    class       volScalarField;
    location    "2";
    object      gradTx;
}
// * * * * * * * * * * * * * * * * * * * * * * * * * * * * * * * * * * * * * //

dimensions      [0 -1 0 1 0 0 0];

internalField   nonuniform List<scalar> 
6300
(
-49.9533
-49.9182
-49.8478
-49.7419
-49.6003
-49.4226
-49.2086
-48.9584
-48.6721
-48.3505
-47.9946
-47.606
-47.1867
-46.7389
-46.265
-49.9881
-49.9531
-49.8829
-49.7773
-49.6359
-49.4584
-49.2445
-48.994
-48.7071
-48.3844
-48.027
-47.6364
-47.2148
-46.7648
-46.2888
-50.0575
-50.0227
-49.9531
-49.8481
-49.7074
-49.5304
-49.3166
-49.0657
-48.7777
-48.4528
-48.0922
-47.6975
-47.2712
-46.8163
-46.336
-50.1612
-50.1269
-50.0581
-49.9542
-49.8147
-49.6387
-49.4255
-49.1742
-48.8846
-48.5566
-48.1911
-47.7899
-47.3558
-46.8928
-46.4051
-50.2988
-50.2652
-50.1977
-50.0957
-49.9581
-49.784
-49.572
-49.3208
-49.0295
-48.6976
-48.3254
-47.9149
-47.4692
-46.9936
-46.4942
-50.4697
-50.4371
-50.3715
-50.2722
-50.1378
-49.9667
-49.7572
-49.5071
-49.2147
-48.8783
-48.4979
-48.0746
-47.6124
-47.1179
-46.6003
-50.6726
-50.6415
-50.5787
-50.4833
-50.3536
-50.1876
-49.9826
-49.7355
-49.4433
-49.103
-48.7127
-48.2729
-47.7875
-47.265
-46.7189
-50.9063
-50.8771
-50.8182
-50.7283
-50.6054
-50.447
-50.2495
-50.0087
-49.7197
-49.3772
-48.9768
-48.5166
-47.9994
-47.4355
-46.8444
-51.1687
-51.1421
-51.0882
-51.0057
-50.8924
-50.7451
-50.5594
-50.3298
-50.0491
-49.7089
-49.3005
-48.8171
-48.2576
-47.6328
-46.9701
-51.4573
-51.4339
-51.3865
-51.3136
-51.2129
-51.081
-50.9129
-50.7017
-50.4377
-50.1084
-49.6988
-49.1932
-48.581
-47.8678
-47.0894
-51.7688
-51.7493
-51.7097
-51.6487
-51.5642
-51.4527
-51.3092
-51.1259
-50.8911
-50.5879
-50.1928
-49.6755
-49.0052
-48.1676
-47.2005
-52.0994
-52.0844
-52.0538
-52.0069
-51.9419
-51.8561
-51.7449
-51.6011
-51.4125
-51.1591
-50.8086
-50.3106
-49.5962
-48.5964
-47.3165
-52.4445
-52.4344
-52.4139
-52.3827
-52.34
-52.2843
-52.2129
-52.1207
-51.9983
-51.8271
-51.5713
-51.1618
-50.4721
-49.3049
-47.4939
-52.7993
-52.7942
-52.7842
-52.7696
-52.7506
-52.7278
-52.7012
-52.6702
-52.6324
-52.5792
-52.4873
-52.2927
-51.8249
-50.6566
-47.9465
-53.1585
-53.1584
-53.1587
-53.1603
-53.1647
-53.1745
-53.1933
-53.2263
-53.2814
-53.3697
-53.5054
-53.6961
-53.8776
-53.5499
-49.7557
-45.8102
-45.3794
-44.9333
-44.4719
-43.9947
-43.5013
-42.9906
-42.462
-41.9149
-41.3495
-40.7661
-40.1662
-39.5515
-38.9243
-38.2874
-37.6438
-36.9966
-36.3491
-35.7045
-35.0662
-34.4373
-33.8211
-33.2205
-32.6383
-32.0772
-31.5394
-31.0267
-30.5408
-30.0828
-29.6536
-29.2537
-28.8833
-28.5424
-28.2308
-27.9481
-27.6936
-27.4668
-27.2672
-27.094
-26.9466
-26.8245
-26.727
-26.6537
-26.6041
-26.5781
-26.5755
-26.5965
-26.6416
-26.7114
-26.8064
-26.9274
-27.075
-27.2496
-27.4516
-27.6809
-27.9374
-28.2206
-28.5299
-28.8643
-29.2226
-29.6036
-30.0058
-30.4279
-30.8682
-31.3255
-31.7982
-32.2849
-32.7843
-33.2948
-33.815
-34.3436
-34.8793
-35.4207
-35.9668
-36.5164
-37.0686
-37.6223
-38.1765
-38.7303
-39.2827
-39.8329
-40.3799
-40.9231
-41.4614
-41.9941
-42.52
-43.0378
-43.5456
-44.0417
-44.5239
-45.8327
-45.4013
-44.9551
-44.4943
-44.0182
-43.5259
-43.0164
-42.4884
-41.9414
-41.3751
-40.7901
-40.1875
-39.5695
-38.9384
-38.2972
-37.6491
-36.9972
-36.345
-35.6958
-35.0528
-34.4194
-33.7988
-33.1942
-32.6084
-32.0441
-31.5035
-30.9887
-30.501
-30.0418
-29.6118
-29.2116
-28.8413
-28.5008
-28.1898
-27.9078
-27.6542
-27.4284
-27.2296
-27.0573
-26.9109
-26.7896
-26.6929
-26.6201
-26.5709
-26.5449
-26.542
-26.5625
-26.6068
-26.6756
-26.7696
-26.8898
-27.0367
-27.2109
-27.4127
-27.6423
-27.8994
-28.1836
-28.4942
-28.8302
-29.1904
-29.5734
-29.9777
-30.4018
-30.8442
-31.3035
-31.7783
-32.267
-32.7684
-33.2809
-33.8031
-34.3336
-34.871
-35.4141
-35.9616
-36.5127
-37.0663
-37.6214
-38.177
-38.7321
-39.2858
-39.8371
-40.3853
-40.9295
-41.4692
-42.0035
-42.5314
-43.0515
-43.5621
-44.0613
-44.5467
-45.8769
-45.4441
-44.9979
-44.5384
-44.0647
-43.5753
-43.0684
-42.5423
-41.9956
-41.4278
-40.8392
-40.2313
-39.6063
-38.9671
-38.3171
-37.6598
-36.9986
-36.3369
-35.6782
-35.0259
-34.3833
-33.7539
-33.1411
-32.5479
-31.9771
-31.431
-30.9118
-30.4207
-29.9591
-29.5277
-29.127
-28.7569
-28.4173
-28.1076
-27.8273
-27.5755
-27.3514
-27.1545
-26.9841
-26.8395
-26.7199
-26.6248
-26.5533
-26.5048
-26.4789
-26.4755
-26.4947
-26.5372
-26.604
-26.6959
-26.8141
-26.9595
-27.1328
-27.3344
-27.5645
-27.8229
-28.1091
-28.4224
-28.7617
-29.1257
-29.5128
-29.9214
-30.3497
-30.7963
-31.2596
-31.7384
-32.2312
-32.7366
-33.2532
-33.7794
-34.3137
-34.8546
-35.4009
-35.9515
-36.5054
-37.0618
-37.6196
-38.178
-38.7358
-39.292
-39.8456
-40.3959
-40.9423
-41.4845
-42.0218
-42.5535
-43.0783
-43.5946
-44.1002
-44.5923
-45.9409
-45.5058
-45.0598
-44.6029
-44.1337
-43.6498
-43.1481
-42.6258
-42.0803
-41.5103
-40.9162
-40.2997
-39.6635
-39.0115
-38.3478
-37.6763
-37.0008
-36.3248
-35.6518
-34.9851
-34.3284
-33.6855
-33.06
-32.4554
-31.8747
-31.3205
-30.7946
-30.2985
-29.8334
-29.4
-28.9986
-28.6291
-28.2911
-27.9838
-27.7062
-27.4572
-27.2361
-27.042
-26.8743
-26.7325
-26.6158
-26.5233
-26.454
-26.4069
-26.3813
-26.3769
-26.394
-26.4335
-26.4966
-26.5849
-26.6999
-26.8428
-27.0145
-27.2157
-27.4465
-27.7067
-27.9961
-28.3137
-28.6582
-29.0283
-29.4218
-29.8369
-30.2717
-30.7245
-31.1938
-31.6785
-32.1774
-32.689
-33.2119
-33.7442
-34.2844
-34.8306
-35.3816
-35.9365
-36.4945
-37.055
-37.6171
-38.1797
-38.7417
-39.3016
-39.8585
-40.4117
-40.9609
-41.5063
-42.0477
-42.585
-43.117
-43.6421
-44.1576
-44.6606
-46.0218
-45.5829
-45.1373
-44.685
-44.2237
-43.7496
-43.2576
-42.7425
-42.2
-41.6277
-41.0257
-40.3962
-39.7436
-39.073
-38.3897
-37.6986
-37.0038
-36.3087
-35.6163
-34.9301
-34.254
-33.5922
-32.9492
-32.3289
-31.7347
-31.1694
-30.6348
-30.1322
-29.6625
-29.2266
-28.8246
-28.4565
-28.1213
-27.8178
-27.5443
-27.2995
-27.0823
-26.8919
-26.7279
-26.59
-26.4774
-26.389
-26.3233
-26.2787
-26.2538
-26.248
-26.2618
-26.2963
-26.3537
-26.4362
-26.5461
-26.6851
-26.8545
-27.0549
-27.2865
-27.5493
-27.8429
-28.1664
-28.5186
-28.8973
-29.3002
-29.7246
-30.1682
-30.6291
-31.1062
-31.5986
-32.1053
-32.6254
-33.157
-33.6981
-34.2463
-34.7997
-35.3568
-35.917
-36.48
-37.0457
-37.6135
-38.1823
-38.7502
-39.3154
-39.8766
-40.4329
-40.9848
-41.5333
-42.0794
-42.6236
-43.1653
-43.7027
-44.2327
-44.7513
-46.1146
-45.6694
-45.2244
-44.7796
-44.332
-43.8751
-43.4002
-42.8985
-42.3625
-41.7879
-41.1746
-40.5263
-39.8497
-39.1527
-38.443
-37.7266
-37.0076
-36.2887
-35.5722
-34.861
-34.1593
-33.4724
-32.8058
-32.1649
-31.5537
-30.9746
-30.4294
-29.9187
-29.4436
-29.0047
-28.6026
-28.2369
-27.9064
-27.6089
-27.3418
-27.1028
-26.8904
-26.7043
-26.5446
-26.4116
-26.3048
-26.2227
-26.163
-26.1226
-26.0993
-26.0917
-26.1002
-26.1269
-26.1751
-26.2486
-26.3508
-26.4842
-26.6503
-26.8496
-27.0822
-27.3481
-27.6471
-27.9786
-28.3411
-28.732
-29.1479
-29.5849
-30.04
-30.5109
-30.997
-31.4981
-32.0144
-32.5453
-33.0887
-33.6418
-34.2009
-34.7634
-35.3276
-35.8933
-36.4616
-37.0334
-37.6086
-38.1859
-38.7624
-39.335
-39.9012
-40.4602
-41.0133
-41.5633
-42.1133
-42.6652
-43.2193
-43.7734
-44.3235
-44.8642
-46.2117
-45.7557
-45.3108
-44.8783
-44.4537
-44.0262
-43.5815
-43.1038
-42.5804
-42.0038
-41.3739
-40.6972
-39.9851
-39.2508
-38.506
-37.7583
-37.0114
-36.2655
-35.5205
-34.7784
-34.0436
-33.3234
-32.6259
-31.9587
-31.3265
-30.7316
-30.1744
-29.6546
-29.1728
-28.7303
-28.3285
-27.9672
-27.6446
-27.3568
-27.0993
-26.8681
-26.6614
-26.4793
-26.3235
-26.196
-26.0972
-26.025
-25.9752
-25.9427
-25.9227
-25.9127
-25.913
-25.9272
-25.9608
-26.0203
-26.1112
-26.2369
-26.3989
-26.597
-26.8305
-27.0996
-27.4049
-27.7465
-28.1232
-28.5313
-28.9655
-29.4198
-29.8893
-30.3714
-30.8662
-31.376
-31.9028
-32.4472
-33.0068
-33.5767
-34.1509
-34.7248
-35.2961
-35.8661
-36.4382
-37.0159
-37.6006
-38.1904
-38.7801
-39.3635
-39.9358
-40.4957
-41.046
-41.5931
-42.1438
-42.7033
-43.2728
-43.8495
-44.4273
-44.9987
-46.3012
-45.8257
-45.3792
-44.9657
-44.5792
-44.2023
-43.81
-43.375
-42.8748
-42.2966
-41.6405
-40.919
-40.1526
-39.3643
-38.573
-37.7893
-37.0138
-36.241
-35.4652
-34.6853
-33.9071
-33.1418
-32.403
-31.7022
-31.0459
-30.4348
-29.8659
-29.3363
-28.8459
-28.3979
-27.9963
-27.6424
-27.3332
-27.0617
-26.8193
-26.5989
-26.3975
-26.2168
-26.0623
-25.9398
-25.8517
-25.7955
-25.7633
-25.7453
-25.7324
-25.7193
-25.7065
-25.6999
-25.7098
-25.7474
-25.8218
-25.938
-26.0962
-26.2937
-26.5281
-26.7996
-27.1108
-27.4644
-27.8603
-28.2934
-28.7545
-29.2331
-29.7207
-30.2137
-30.7144
-31.2295
-31.7661
-32.3275
-32.9103
-33.5054
-34.1016
-34.6898
-35.2666
-35.8359
-36.4065
-36.9881
-37.5854
-38.195
-38.8067
-39.4077
-39.988
-40.5445
-41.0832
-41.6172
-42.1614
-42.7267
-43.3156
-43.9233
-44.5401
-45.1544
-46.3658
-45.8539
-45.3997
-45.0142
-44.6907
-44.4006
-44.0998
-43.7402
-43.2816
-42.7016
-42.0015
-41.2054
-40.3517
-39.482
-38.6294
-37.8086
-37.0124
-36.2211
-35.416
-34.5901
-33.7523
-32.9226
-32.1255
-31.3818
-30.7006
-30.0777
-29.5013
-28.9618
-28.4583
-27.9992
-27.5957
-27.2537
-26.9681
-26.7252
-26.508
-26.3028
-26.1042
-25.9173
-25.7557
-25.6343
-25.5611
-25.5317
-25.5316
-25.5413
-25.5431
-25.5263
-25.4914
-25.4496
-25.4197
-25.4219
-25.4728
-25.5792
-25.7374
-25.9378
-26.1728
-26.4429
-26.756
-27.1219
-27.5444
-28.0156
-28.5188
-29.0338
-29.5447
-30.0452
-30.5421
-31.0521
-31.594
-32.1773
-32.7962
-33.4327
-34.0638
-34.6712
-35.2481
-35.8036
-36.359
-36.9377
-37.5522
-38.1963
-38.8484
-39.4816
-40.0742
-40.6187
-41.1268
-41.6261
-42.1483
-42.7156
-43.331
-43.9836
-44.656
-45.331
-46.3791
-45.799
-45.3213
-44.9731
-44.7539
-44.6142
-44.4743
-44.2479
-43.8633
-43.2795
-42.5007
-41.5748
-40.5739
-39.5752
-38.6403
-37.7925
-37.0041
-36.2214
-35.3967
-34.5125
-33.586
-32.6565
-31.7717
-30.9716
-30.2718
-29.6539
-29.0839
-28.5358
-28.0074
-27.521
-27.1071
-26.7841
-26.5421
-26.3522
-26.1799
-25.9979
-25.7945
-25.582
-25.3918
-25.2602
-25.208
-25.2266
-25.2863
-25.3492
-25.3809
-25.36
-25.2868
-25.183
-25.0836
-25.027
-25.0442
-25.1465
-25.3184
-25.5323
-25.7676
-26.0248
-26.3257
-26.6985
-27.1586
-27.6924
-28.2663
-28.8409
-29.384
-29.8824
-30.351
-30.8293
-31.3623
-31.9758
-32.6572
-33.3678
-34.0604
-34.6965
-35.2605
-35.7714
-36.278
-36.8356
-37.4764
-38.1857
-38.9172
-39.6139
-40.2295
-40.745
-41.1827
-41.6015
-42.0701
-42.6345
-43.2927
-44.0148
-44.7676
-45.5279
-46.303
-45.5964
-45.0558
-44.7459
-44.7023
-44.8281
-44.9729
-44.9834
-44.7319
-44.138
-43.2119
-42.0523
-40.7927
-39.5769
-38.5256
-37.6912
-36.9879
-36.2822
-35.4632
-34.4963
-33.4243
-32.3263
-31.2964
-30.4172
-29.7254
-29.1614
-28.6356
-28.0818
-27.4965
-26.9388
-26.4881
-26.1984
-26.0418
-25.9542
-25.8667
-25.7241
-25.4989
-25.2149
-24.9445
-24.7723
-24.7535
-24.8629
-25.037
-25.2028
-25.2953
-25.2699
-25.1267
-24.9108
-24.6867
-24.5267
-24.4936
-24.6143
-24.8396
-25.0967
-25.3314
-25.5445
-25.7922
-26.1499
-26.6671
-27.3117
-28.0134
-28.6937
-29.2881
-29.7627
-30.1463
-30.5282
-31.0152
-31.6766
-32.4763
-33.3289
-34.1384
-34.8256
-35.3496
-35.7455
-36.1234
-36.6137
-37.3016
-38.1433
-39.0356
-39.8626
-40.5286
-40.983
-41.2656
-41.5045
-41.8537
-42.4178
-43.1618
-44.0012
-44.868
-45.7419
-46.0773
-45.1542
-44.4581
-44.135
-44.4063
-45.0143
-45.6649
-46.0959
-46.0934
-45.4748
-44.2595
-42.6737
-40.9486
-39.3418
-38.0989
-37.401
-36.9755
-36.5065
-35.743
-34.6316
-33.3002
-31.8985
-30.6046
-29.5932
-28.9953
-28.6144
-28.2283
-27.6735
-26.9462
-26.2028
-25.6381
-25.4215
-25.4427
-25.5568
-25.6335
-25.5698
-25.2888
-24.8288
-24.3564
-24.0643
-24.1152
-24.4067
-24.8004
-25.1629
-25.3803
-25.3499
-25.0723
-24.6511
-24.1985
-23.8442
-23.7223
-23.9321
-24.3158
-24.694
-24.9268
-25.0152
-25.1009
-25.372
-25.993
-26.8496
-27.7917
-28.6708
-29.365
-29.7747
-29.9444
-30.0761
-30.4172
-31.1787
-32.2194
-33.3522
-34.3926
-35.1901
-35.6229
-35.7457
-35.8067
-36.1074
-36.9051
-38.0279
-39.2479
-40.3431
-41.132
-41.468
-41.4111
-41.2485
-41.327
-41.9418
-42.893
-43.9477
-44.9576
-45.9517
-45.5705
-44.3846
-43.3236
-42.6681
-43.6259
-45.1393
-46.673
-47.8325
-48.3421
-47.6709
-45.8407
-43.4957
-40.9344
-38.5827
-36.8874
-36.7187
-37.0259
-37.155
-36.5241
-35.0839
-33.2775
-31.3155
-29.5064
-28.1742
-27.9531
-28.0752
-28.0643
-27.514
-26.4197
-25.2101
-24.2873
-24.3026
-24.7103
-25.214
-25.6029
-25.729
-25.3371
-24.4611
-23.5094
-22.8629
-23.1309
-23.8042
-24.6095
-25.3327
-25.8227
-25.7867
-25.2255
-24.437
-23.5691
-22.8278
-22.4738
-22.9999
-23.8004
-24.5014
-24.7307
-24.4902
-24.143
-24.091
-24.9798
-26.2646
-27.6613
-28.9146
-29.8521
-30.1326
-29.7974
-29.3229
-29.214
-30.2788
-31.8303
-33.5088
-34.9966
-36.0798
-36.3425
-35.835
-35.1448
-34.8853
-36.0404
-37.7724
-39.6398
-41.264
-42.3875
-42.5183
-41.7082
-40.645
-40.0279
-40.9807
-42.4746
-43.9578
-45.0695
-46.0356
-44.2673
-43.4352
-41.6048
-38.8774
-42.045
-45.2347
-48.22
-50.5049
-52.2909
-51.536
-48.1634
-44.629
-40.6184
-36.8784
-33.4777
-35.3515
-37.3328
-38.8981
-38.4708
-36.064
-33.4792
-30.5128
-27.7218
-25.1558
-26.4169
-27.728
-28.6777
-28.1382
-26.0598
-23.8047
-21.5864
-22.619
-23.8405
-25.0369
-25.9514
-26.6349
-26.0834
-24.2031
-22.2238
-20.3453
-21.5638
-23.0123
-24.5375
-25.8392
-27.0233
-26.9806
-25.707
-24.3381
-22.7581
-21.2546
-19.9588
-21.6733
-23.4288
-24.9887
-25.2119
-24.1194
-22.7608
-21.4555
-23.3973
-25.5188
-27.7381
-29.6136
-31.286
-31.3774
-29.8514
-28.0436
-26.321
-28.6782
-31.2586
-33.9402
-36.1832
-38.1513
-38.1714
-36.1875
-33.8626
-31.6261
-34.3448
-37.3215
-40.3818
-42.9058
-45.0721
-44.9229
-42.3697
-39.3984
-36.4675
-39.24
-42.071
-44.5024
-45.3901
-45.3512
-39.2821
-43.9228
-41.1775
-26.5979
-40.4323
-45.6242
-50.7753
-53.8955
-59.8986
-59.1706
-50.719
-46.4478
-39.9131
-34.6857
-22.4727
-33.8296
-38.2389
-43.5111
-43.2681
-37.3007
-34.2308
-29.4578
-25.6134
-16.6266
-24.8093
-27.9017
-31.4357
-30.9791
-25.9549
-22.3469
-14.2044
-20.6641
-23.0071
-25.2666
-26.6334
-29.3197
-28.7438
-24.0885
-20.7935
-13.3685
-19.6663
-22.1106
-24.788
-26.5161
-29.9911
-29.948
-26.3265
-24.544
-21.8376
-19.3829
-13.1097
-20.2883
-23.3397
-27.4016
-27.5881
-24.1326
-21.3025
-14.1449
-21.5563
-24.6328
-28.3105
-30.6056
-34.9971
-34.9517
-30.3116
-26.642
-17.5535
-26.7563
-30.5416
-35.0032
-37.766
-43.028
-42.8861
-37.0308
-32.4532
-21.2311
-32.2779
-36.7498
-41.8961
-45.0621
-51.0906
-50.7891
-43.6328
-38.0934
-24.6937
-37.4145
-42.2424
-47.2695
-47.0447
-40.4832
-45.0344
-45.5664
-46.0675
-46.5345
-46.9646
-47.3559
-47.7072
-48.0178
-48.2878
-48.5175
-48.7073
-48.8581
-48.9705
-49.0451
-49.0823
-45.0609
-45.5966
-46.101
-46.5707
-47.0028
-47.3953
-47.7472
-48.0578
-48.3275
-48.5565
-48.7457
-48.8958
-49.0077
-49.0818
-49.1188
-45.114
-45.6576
-46.1688
-46.6439
-47.0798
-47.4747
-47.8276
-48.1382
-48.407
-48.6348
-48.8225
-48.9712
-49.0818
-49.155
-49.1915
-45.1943
-45.7502
-46.2721
-46.7555
-47.1973
-47.5955
-47.9496
-48.2597
-48.5269
-48.7524
-48.9376
-49.0839
-49.1925
-49.2643
-49.3
-45.3025
-45.8762
-46.4133
-46.9082
-47.3576
-47.7598
-48.1148
-48.4235
-48.6878
-48.9096
-49.0909
-49.2336
-49.3392
-49.4089
-49.4436
-45.4399
-46.0384
-46.5959
-47.1059
-47.5645
-47.9707
-48.3255
-48.6311
-48.8905
-49.1066
-49.2822
-49.4197
-49.5211
-49.5879
-49.6211
-45.6084
-46.2409
-46.8256
-47.3543
-47.8232
-48.2324
-48.5847
-48.8843
-49.1358
-49.3433
-49.5107
-49.6411
-49.7369
-49.7998
-49.831
-45.8116
-46.4904
-47.1108
-47.662
-48.141
-48.5504
-48.8961
-49.1851
-49.4242
-49.6194
-49.7756
-49.8964
-49.9848
-50.0427
-50.0713
-46.0551
-46.798
-47.4646
-48.0414
-48.5279
-48.9316
-49.2636
-49.5351
-49.7559
-49.934
-50.075
-50.1835
-50.2624
-50.314
-50.3395
-46.3478
-47.1812
-47.9075
-48.5104
-48.9967
-49.3839
-49.691
-49.9353
-50.13
-50.2848
-50.4063
-50.4993
-50.5667
-50.6106
-50.6323
-46.7039
-47.671
-48.4729
-49.0951
-49.5638
-49.9152
-50.1807
-50.3846
-50.5435
-50.6682
-50.7655
-50.8398
-50.8936
-50.9288
-50.9461
-47.1435
-48.3249
-49.2173
-49.8329
-50.2473
-50.5308
-50.731
-50.8783
-50.9906
-51.0784
-51.1471
-51.1999
-51.2385
-51.2638
-51.2764
-47.6988
-49.2674
-50.2377
-50.7717
-51.0618
-51.2284
-51.3331
-51.4061
-51.4619
-51.507
-51.5439
-51.5735
-51.5958
-51.6108
-51.6184
-48.4834
-50.8076
-51.693
-51.9535
-51.9996
-51.9869
-51.9657
-51.9504
-51.9434
-51.9432
-51.9474
-51.9535
-51.9596
-51.9644
-51.967
-50.3824
-53.7858
-53.7722
-53.3489
-52.9961
-52.7526
-52.5912
-52.4856
-52.4175
-52.3746
-52.3483
-52.3327
-52.3239
-52.3193
-52.3174
-53.4874
-53.4915
-53.5002
-53.5152
-53.539
-53.5755
-53.631
-53.7154
-53.8454
-54.0502
-54.3878
-54.9904
-56.2257
-59.3792
-69.973
-53.7833
-53.7906
-53.806
-53.8315
-53.87
-53.9265
-54.0085
-54.1282
-54.3058
-54.5762
-55.0055
-55.7272
-57.0282
-59.5113
-64.0083
-54.0736
-54.0836
-54.1045
-54.1383
-54.1882
-54.2594
-54.3595
-54.5006
-54.7012
-54.9913
-55.4195
-56.0615
-57.0096
-58.2443
-59.0085
-54.3565
-54.3686
-54.3936
-54.4335
-54.4914
-54.5719
-54.6819
-54.8313
-55.0341
-55.3099
-55.6845
-56.1831
-56.7917
-57.3035
-56.7082
-54.6307
-54.6442
-54.672
-54.7159
-54.7784
-54.8636
-54.9767
-55.1246
-55.3157
-55.5593
-55.8631
-56.2278
-56.6406
-57.1311
-58.2778
-54.8949
-54.9094
-54.9389
-54.9849
-55.0495
-55.1356
-55.247
-55.3874
-55.5603
-55.7662
-55.9992
-56.2387
-56.4349
-56.5027
-56.3718
-55.1487
-55.1636
-55.1938
-55.2405
-55.3052
-55.3899
-55.4968
-55.6274
-55.7813
-55.9537
-56.1306
-56.2793
-56.318
-56.0118
-54.3807
-55.3918
-55.4067
-55.4369
-55.4832
-55.5467
-55.6286
-55.7299
-55.8507
-55.9887
-56.1372
-56.2816
-56.3958
-56.4398
-56.4409
-57.1993
-55.6239
-55.6386
-55.6684
-55.7136
-55.7751
-55.8535
-55.9492
-56.0616
-56.1882
-56.3227
-56.4537
-56.5605
-56.5909
-56.3439
-54.6142
-55.8453
-55.8596
-55.8885
-55.9323
-55.9913
-56.0661
-56.1566
-56.2623
-56.3813
-56.5096
-56.6425
-56.778
-56.9338
-57.2763
-59.0089
-56.0562
-56.0701
-56.0979
-56.1399
-56.1964
-56.2675
-56.3533
-56.4535
-56.567
-56.6925
-56.8294
-56.9812
-57.1462
-57.243
-56.4386
-56.2569
-56.2702
-56.2969
-56.337
-56.3908
-56.4584
-56.5398
-56.635
-56.7437
-56.8663
-57.006
-57.1747
-57.4052
-57.8351
-59.3012
-56.4479
-56.4606
-56.486
-56.5242
-56.5753
-56.6394
-56.7164
-56.8066
-56.91
-57.0273
-57.1623
-57.325
-57.5249
-57.7074
-57.2039
-56.6295
-56.6416
-56.6657
-56.702
-56.7504
-56.811
-56.8838
-56.9687
-57.0657
-57.175
-57.2992
-57.4492
-57.6559
-58.0558
-59.3745
-56.8021
-56.8136
-56.8365
-56.8709
-56.9167
-56.9739
-57.0424
-57.122
-57.212
-57.3111
-57.4183
-57.5334
-57.652
-57.7657
-57.8574
-56.9661
-56.977
-56.9988
-57.0314
-57.0747
-57.1287
-57.1932
-57.2677
-57.351
-57.4406
-57.5319
-57.6147
-57.6505
-57.4906
-56.4111
-57.122
-57.1324
-57.153
-57.1839
-57.2249
-57.2759
-57.3367
-57.4068
-57.4848
-57.5679
-57.6515
-57.7281
-57.7841
-57.8539
-58.5087
-57.2701
-57.2799
-57.2995
-57.3288
-57.3676
-57.4159
-57.4735
-57.5399
-57.614
-57.6937
-57.7759
-57.8553
-57.9073
-57.8106
-56.7822
-57.4108
-57.4201
-57.4387
-57.4665
-57.5034
-57.5493
-57.604
-57.6673
-57.7384
-57.8166
-57.9022
-58.001
-58.1329
-58.4141
-59.6115
-57.5444
-57.5533
-57.571
-57.5975
-57.6326
-57.6762
-57.7283
-57.7886
-57.857
-57.9331
-58.0193
-58.1232
-58.254
-58.3809
-58.0175
-57.6712
-57.6797
-57.6966
-57.7218
-57.7553
-57.7969
-57.8466
-57.9041
-57.9691
-58.0416
-58.1239
-58.2264
-58.3769
-58.6876
-59.7192
-57.7914
-57.7996
-57.8158
-57.8399
-57.872
-57.9117
-57.9591
-58.0138
-58.0751
-58.142
-58.2145
-58.2957
-58.3877
-58.4934
-58.6051
-57.9054
-57.9132
-57.9288
-57.952
-57.9828
-58.021
-58.0664
-58.1184
-58.1761
-58.2373
-58.2992
-58.357
-58.388
-58.2947
-57.5767
-58.0133
-58.0208
-58.0359
-58.0583
-58.0881
-58.1249
-58.1687
-58.2187
-58.2736
-58.3308
-58.3866
-58.4365
-58.4735
-58.5295
-59.0157
-58.1152
-58.1226
-58.1372
-58.159
-58.1879
-58.2238
-58.2663
-58.3151
-58.3686
-58.4242
-58.478
-58.5246
-58.5448
-58.4652
-57.8425
-58.2114
-58.2186
-58.2329
-58.2542
-58.2824
-58.3176
-58.3595
-58.4076
-58.461
-58.5174
-58.5745
-58.6306
-58.6844
-58.7778
-59.3328
-58.302
-58.309
-58.323
-58.3439
-58.3717
-58.4064
-58.4479
-58.4961
-58.5502
-58.609
-58.6715
-58.7376
-58.7954
-58.7695
-58.1293
-58.387
-58.3939
-58.4077
-58.4283
-58.4558
-58.4902
-58.5315
-58.5799
-58.635
-58.6967
-58.7661
-58.8498
-58.9637
-59.1874
-60.0322
-58.4664
-58.4733
-58.4869
-58.5073
-58.5346
-58.5687
-58.61
-58.6585
-58.7143
-58.7777
-58.8507
-58.9407
-59.0545
-59.1736
-58.9878
-58.5405
-58.5472
-58.5608
-58.581
-58.6081
-58.6421
-58.6831
-58.7315
-58.7873
-58.8506
-58.9235
-59.0144
-59.1408
-59.3711
-60.0488
-58.6091
-58.6158
-58.6293
-58.6494
-58.6763
-58.7101
-58.7509
-58.7989
-58.8539
-58.9154
-58.9839
-59.0629
-59.1538
-59.2575
-59.3635
-58.6724
-58.6791
-58.6924
-58.7125
-58.7392
-58.7728
-58.8134
-58.8609
-58.9148
-58.974
-59.0371
-59.1026
-59.157
-59.1417
-58.7608
-58.7303
-58.7369
-58.7503
-58.7702
-58.797
-58.8304
-58.8708
-58.9179
-58.9711
-59.0286
-59.0885
-59.1496
-59.2075
-59.2795
-59.5958
-58.7828
-58.7894
-58.8028
-58.8228
-58.8494
-58.8829
-58.9232
-58.9702
-59.0231
-59.0801
-59.139
-59.1982
-59.2472
-59.2473
-58.966
-58.8299
-58.8366
-58.8499
-58.87
-58.8967
-58.9303
-58.9707
-59.0179
-59.0711
-59.1288
-59.1894
-59.2534
-59.3197
-59.4102
-59.7393
-58.8717
-58.8784
-58.8918
-58.9119
-58.9388
-58.9725
-59.0132
-59.0608
-59.1148
-59.1741
-59.2376
-59.3063
-59.3744
-59.407
-59.1607
-58.9081
-58.9148
-58.9283
-58.9485
-58.9755
-59.0095
-59.0506
-59.0988
-59.1538
-59.2149
-59.2821
-59.3593
-59.4526
-59.597
-60.0189
-58.939
-58.9458
-58.9594
-58.9797
-59.0069
-59.0412
-59.0827
-59.1315
-59.1875
-59.25
-59.3197
-59.4004
-59.4943
-59.5938
-59.5806
-58.9645
-58.9713
-58.985
-59.0055
-59.033
-59.0675
-59.1094
-59.1588
-59.2154
-59.2788
-59.3495
-59.4319
-59.531
-59.6684
-59.958
-58.9845
-58.9914
-59.0051
-59.0258
-59.0535
-59.0884
-59.1306
-59.1804
-59.2374
-59.3011
-59.3714
-59.4511
-59.5401
-59.6369
-59.7303
-58.9989
-59.0059
-59.0198
-59.0406
-59.0686
-59.1037
-59.1463
-59.1964
-59.2537
-59.3173
-59.3866
-59.4632
-59.5427
-59.6073
-59.5769
-59.0078
-59.0148
-59.0288
-59.0499
-59.0781
-59.1136
-59.1565
-59.2069
-59.2644
-59.328
-59.3969
-59.4729
-59.5544
-59.6432
-59.7808
-59.011
-59.0181
-59.0322
-59.0535
-59.082
-59.1178
-59.1611
-59.212
-59.2697
-59.3334
-59.4023
-59.4782
-59.5598
-59.6448
-59.7208
-59.0085
-59.0156
-59.03
-59.0515
-59.0803
-59.1165
-59.1603
-59.2116
-59.2698
-59.3338
-59.4029
-59.479
-59.5618
-59.6523
-59.7482
-59.0002
-59.0075
-59.022
-59.0438
-59.073
-59.1096
-59.1539
-59.2058
-59.2646
-59.3291
-59.3985
-59.4745
-59.5575
-59.6554
-59.8266
-58.9861
-58.9935
-59.0082
-59.0303
-59.0599
-59.097
-59.142
-59.1946
-59.2542
-59.3196
-59.3895
-59.4648
-59.5415
-59.6074
-59.5896
-58.9661
-58.9736
-58.9885
-59.011
-59.041
-59.0787
-59.1243
-59.1779
-59.2387
-59.3055
-59.3768
-59.4534
-59.532
-59.6169
-59.7938
-58.9402
-58.9478
-58.9629
-58.9857
-59.0161
-59.0545
-59.101
-59.1556
-59.2178
-59.2866
-59.3606
-59.44
-59.5169
-59.5622
-59.4442
-58.9082
-58.9159
-58.9312
-58.9543
-58.9853
-59.0243
-59.0716
-59.1274
-59.1913
-59.2625
-59.3406
-59.4279
-59.5225
-59.6204
-59.7087
-58.87
-58.8778
-58.8934
-58.9169
-58.9483
-58.9879
-59.0361
-59.0929
-59.1584
-59.232
-59.3144
-59.41
-59.5247
-59.685
-60.0441
-58.8257
-58.8336
-58.8494
-58.8732
-58.9051
-58.9453
-58.9941
-59.0519
-59.1186
-59.194
-59.279
-59.3784
-59.4941
-59.6111
-59.5644
-58.7751
-58.7831
-58.7991
-58.8232
-58.8555
-58.8962
-58.9457
-59.0042
-59.0716
-59.1477
-59.2335
-59.335
-59.4613
-59.6507
-60.1362
-58.7181
-58.7262
-58.7424
-58.7668
-58.7995
-58.8407
-58.8907
-58.9497
-59.0173
-59.0931
-59.1772
-59.2738
-59.3834
-59.4841
-59.3315
-58.6547
-58.6628
-58.6793
-58.7039
-58.737
-58.7787
-58.8292
-58.8885
-58.9562
-59.031
-59.1123
-59.2029
-59.3106
-59.4932
-60.1541
-58.5847
-58.593
-58.6096
-58.6346
-58.668
-58.7102
-58.7612
-58.821
-58.889
-58.963
-59.0408
-59.1197
-59.1847
-59.1695
-58.6573
-58.5083
-58.5166
-58.5334
-58.5586
-58.5924
-58.6351
-58.6867
-58.7474
-58.8161
-58.8909
-58.9685
-59.0455
-59.1133
-59.1906
-59.603
-58.4251
-58.4336
-58.4505
-58.476
-58.5102
-58.5533
-58.6057
-58.6675
-58.7379
-58.8152
-58.8965
-58.9772
-59.034
-58.9786
-58.3874
-58.3354
-58.3439
-58.3609
-58.3866
-58.4211
-58.4648
-58.5179
-58.581
-58.6537
-58.7352
-58.8251
-58.9249
-59.0315
-59.1382
-59.2288
-58.2389
-58.2474
-58.2645
-58.2904
-58.3251
-58.3692
-58.423
-58.4872
-58.562
-58.6478
-58.7467
-58.8673
-59.0279
-59.3085
-60.143
-58.1356
-58.1442
-58.1613
-58.1872
-58.2221
-58.2664
-58.3206
-58.3854
-58.4615
-58.5497
-58.6533
-58.7813
-58.9396
-59.0936
-58.8278
-58.0256
-58.0341
-58.0513
-58.0772
-58.1121
-58.1563
-58.2105
-58.2753
-58.3512
-58.4393
-58.5431
-58.6737
-58.8532
-59.17
-60.157
-57.9088
-57.9173
-57.9344
-57.9602
-57.9949
-58.0389
-58.0927
-58.1567
-58.2312
-58.3165
-58.4143
-58.5315
-58.6701
-58.7804
-58.3219
-57.7853
-57.7937
-57.8107
-57.8363
-57.8708
-57.9144
-57.9675
-58.0303
-58.1026
-58.1832
-58.2721
-58.3739
-58.5055
-58.7855
-60.0382
-57.655
-57.6634
-57.6803
-57.7056
-57.7397
-57.7828
-57.8352
-57.8968
-57.9668
-58.0427
-58.1209
-58.195
-58.2367
-58.1146
-56.9941
-57.5181
-57.5264
-57.5431
-57.5682
-57.6019
-57.6444
-57.6961
-57.7569
-57.8255
-57.8991
-57.9726
-58.038
-58.0804
-58.1367
-58.8222
-57.3747
-57.3828
-57.3993
-57.424
-57.4573
-57.4993
-57.5505
-57.6109
-57.6795
-57.7541
-57.8298
-57.8965
-57.9132
-57.7214
-56.5501
-57.2247
-57.2327
-57.2489
-57.2732
-57.306
-57.3475
-57.3982
-57.4585
-57.5282
-57.6066
-57.6932
-57.789
-57.8896
-57.9858
-58.061
-57.0683
-57.0762
-57.092
-57.1159
-57.1481
-57.1889
-57.2389
-57.2989
-57.3695
-57.452
-57.5503
-57.6777
-57.8678
-58.2645
-59.6343
-56.9056
-56.9133
-56.9288
-56.9522
-56.9836
-57.0235
-57.0724
-57.1313
-57.2014
-57.2847
-57.3871
-57.5222
-57.7012
-57.8671
-57.3164
-56.7366
-56.7442
-56.7594
-56.7822
-56.8128
-56.8514
-56.8987
-56.9554
-57.0227
-57.1026
-57.2013
-57.3357
-57.5426
-57.9668
-59.4786
-56.5616
-56.569
-56.5838
-56.606
-56.6357
-56.6729
-56.7181
-56.7717
-56.8339
-56.9058
-56.9907
-57.0982
-57.2318
-57.3107
-56.468
-56.3807
-56.3879
-56.4024
-56.424
-56.4528
-56.4886
-56.5314
-56.5812
-56.6372
-56.6983
-56.7644
-56.842
-56.9579
-57.2941
-59.1151
-56.1938
-56.201
-56.2152
-56.2364
-56.2644
-56.2989
-56.3397
-56.3859
-56.4357
-56.4857
-56.5301
-56.5587
-56.5298
-56.246
-54.4455
-56.0012
-56.0083
-56.0225
-56.0434
-56.0709
-56.1045
-56.1438
-56.1874
-56.2329
-56.2755
-56.3069
-56.3146
-56.2775
-56.2506
-57.1268
-55.8029
-55.81
-55.8242
-55.8452
-55.8726
-55.9059
-55.9445
-55.987
-56.0309
-56.0713
-56.1002
-56.1011
-56.0167
-55.6277
-53.8565
-55.5987
-55.606
-55.6204
-55.6418
-55.6696
-55.7033
-55.7422
-55.7851
-55.8299
-55.8736
-55.9129
-55.9461
-55.9664
-55.9644
-55.9362
-55.3887
-55.3962
-55.4112
-55.4332
-55.4619
-55.4967
-55.5368
-55.5812
-55.6285
-55.6774
-55.7299
-55.7997
-55.9303
-56.3187
-58.0062
-55.1727
-55.1805
-55.1962
-55.2193
-55.2495
-55.286
-55.3281
-55.3748
-55.4247
-55.4771
-55.5349
-55.6103
-55.7138
-55.7705
-54.8774
-54.9503
-54.9587
-54.9753
-54.9999
-55.032
-55.071
-55.116
-55.1656
-55.2179
-55.2713
-55.3278
-55.4009
-55.5287
-55.8814
-57.5188
-54.7214
-54.7303
-54.7481
-54.7745
-54.8092
-54.8516
-54.9004
-54.954
-55.0091
-55.0618
-55.1092
-55.153
-55.1861
-55.0999
-53.8711
-54.4855
-54.495
-54.5142
-54.5428
-54.5806
-54.6272
-54.6813
-54.7406
-54.8007
-54.8545
-54.8932
-54.912
-54.9251
-55.1113
-56.8158
-54.2421
-54.2524
-54.2729
-54.304
-54.3455
-54.3972
-54.4583
-54.5262
-54.5955
-54.656
-54.6911
-54.6744
-54.5426
-54.068
-51.9348
-53.9909
-54.0018
-54.0237
-54.0572
-54.1026
-54.1604
-54.2302
-54.3103
-54.3952
-54.4736
-54.5249
-54.5163
-54.3969
-54.1761
-54.601
-53.7313
-53.7427
-53.7658
-53.8015
-53.8507
-53.9148
-53.9948
-54.0904
-54.1981
-54.3084
-54.4006
-54.4344
-54.3204
-53.8353
-52.1268
-53.4631
-53.4747
-53.4985
-53.5356
-53.588
-53.6579
-53.7482
-53.8615
-53.9982
-54.1543
-54.3167
-54.4548
-54.5004
-54.3439
-53.9203
-53.1861
-53.1975
-53.2212
-53.2586
-53.3125
-53.3865
-53.4855
-53.6157
-53.7835
-53.9944
-54.2497
-54.5389
-54.8196
-55.0375
-55.4289
-52.9004
-52.9112
-52.9336
-52.9696
-53.0226
-53.0973
-53.2009
-53.3432
-53.5377
-53.8022
-54.1591
-54.6284
-55.1813
-55.6103
-55.1837
-52.6066
-52.616
-52.6358
-52.6683
-52.717
-52.7877
-52.889
-53.0339
-53.242
-53.5442
-53.9907
-54.6593
-55.6278
-56.7768
-56.6861
-52.3055
-52.3129
-52.3286
-52.355
-52.3957
-52.4566
-52.5467
-52.6802
-52.8798
-53.1846
-53.6681
-54.4814
-55.9479
-58.8039
-64.5462
-51.9985
-52.0032
-52.0134
-52.0312
-52.0599
-52.1047
-52.1739
-52.28
-52.4435
-52.6994
-53.1167
-53.8493
-55.3019
-58.8262
-69.9911
-70.9326
-59.6475
-56.0523
-54.5629
-53.8093
-53.378
-53.1121
-52.9409
-52.8285
-52.7543
-52.7053
-52.6734
-52.6532
-52.6414
-52.636
-65.8423
-59.6355
-56.6615
-55.1554
-54.3246
-53.8306
-53.5187
-53.3136
-53.1755
-53.0815
-53.0175
-52.9744
-52.9462
-52.9292
-52.9212
-57.0189
-57.3779
-56.2502
-55.2786
-54.606
-54.1556
-53.8501
-53.6391
-53.4914
-53.3877
-53.3149
-53.2644
-53.2307
-53.21
-53.2002
-56.0069
-56.1521
-55.7293
-55.1938
-54.7331
-54.3788
-54.1149
-53.9199
-53.7767
-53.672
-53.5962
-53.5423
-53.5055
-53.4826
-53.4717
-54.9027
-55.3203
-55.2854
-55.0569
-54.7861
-54.5381
-54.3305
-54.1643
-54.0348
-53.9359
-53.8618
-53.8078
-53.7701
-53.7463
-53.7348
-54.5057
-54.802
-54.9749
-54.949
-54.8232
-54.668
-54.5164
-54.3827
-54.2713
-54.1822
-54.113
-54.0612
-54.0244
-54.0008
-53.9893
-52.9234
-54.369
-54.8013
-54.91
-54.8808
-54.7941
-54.6887
-54.5848
-54.4922
-54.4143
-54.3518
-54.3037
-54.2688
-54.2462
-54.2351
-54.9689
-54.6389
-54.8512
-54.9666
-54.9782
-54.9318
-54.8588
-54.7786
-54.7024
-54.6355
-54.58
-54.5363
-54.504
-54.4829
-54.4724
-52.6302
-54.5316
-54.9672
-55.0948
-55.1158
-55.0868