/*--------------------------------*- C++ -*----------------------------------*\
| =========                 |                                                 |
| \\      /  F ield         | OpenFOAM: The Open Source CFD Toolbox           |
|  \\    /   O peration     | Version:  5.x                                   |
|   \\  /    A nd           | Web:      www.OpenFOAM.org                      |
|    \\/     M anipulation  |                                                 |
\*---------------------------------------------------------------------------*/
FoamFile
{
    version     2.0;
    format      ascii;
    class       volScalarField;
    location    "1.2";
    object      gradTy;
}
// * * * * * * * * * * * * * * * * * * * * * * * * * * * * * * * * * * * * * //

dimensions      [0 -1 0 1 0 0 0];

internalField   nonuniform List<scalar> 
6300
(
32272.5
32217.7
32162.8
32108.2
32053.7
31999.4
31945.4
31891.8
31838.6
31785.8
31733.5
31681.8
31630.7
31580.3
31530.6
-0.0383119
-0.115096
-0.192326
-0.270237
-0.348975
-0.428542
-0.508763
-0.589254
-0.669407
-0.748404
-0.825263
-0.898944
-0.968499
-1.03325
-1.09297
-0.0636696
-0.1913
-0.319749
-0.449447
-0.580673
-0.713473
-0.847589
-0.9824
-1.11688
-1.24961
-1.37884
-1.50268
-1.61932
-1.72745
-1.82658
-0.0887509
-0.266687
-0.445898
-0.62709
-0.810748
-0.997027
-1.18565
-1.37579
-1.56601
-1.75422
-1.93772
-2.1135
-2.27856
-2.43056
-2.56847
-0.113385
-0.340787
-0.570051
-0.802248
-1.03817
-1.2782
-1.52214
-1.76905
-2.0171
-2.26345
-2.50425
-2.73495
-2.95078
-3.14772
-3.32365
-0.137365
-0.412985
-0.691217
-0.97361
-1.2614
-1.55535
-1.85553
-2.16103
-2.46975
-2.77806
-3.08074
-3.3711
-3.64171
-3.8857
-4.09879
-0.160454
-0.482558
-0.808193
-1.13952
-1.47841
-1.82621
-2.18349
-2.5497
-2.92268
-3.29819
-3.66941
-4.02691
-4.35918
-4.65452
-4.90434
-0.182342
-0.548577
-0.919423
-1.29781
-1.68642
-2.08746
-2.5024
-2.93146
-3.37296
-3.82244
-4.27168
-4.70781
-5.11346
-5.46876
-5.7566
-0.202666
-0.609944
-1.02304
-1.44579
-1.88187
-2.33469
-2.80704
-3.30061
-3.81508
-4.34679
-4.88688
-5.41905
-5.91794
-6.35031
-6.6823
-0.22103
-0.665442
-1.11694
-1.58033
-2.06046
-2.56223
-3.0903
-3.64869
-4.23978
-4.8626
-5.50985
-6.16337
-6.78876
-7.33197
-7.72653
-0.237022
-0.713804
-1.19888
-1.698
-2.21729
-2.76331
-3.34309
-3.9639
-4.63259
-5.35383
-6.12634
-6.93561
-7.74142
-8.46188
-8.96804
-0.250258
-0.753826
-1.26667
-1.7954
-2.34725
-2.93049
-3.55468
-4.23108
-4.9727
-5.79359
-6.70584
-7.71099
-8.77896
-9.80543
-10.5519
-0.260425
-0.784519
-1.3185
-1.86954
-2.4457
-3.05656
-3.71391
-4.43288
-5.23337
-6.14177
-7.19216
-8.42305
-9.85729
-11.4281
-12.7687
-0.26733
-0.805264
-1.3532
-1.91843
-2.50931
-3.13597
-3.81137
-4.55302
-5.38592
-6.3477
-7.49756
-8.93115
-10.7983
-13.2801
-16.2413
-0.270942
-0.815949
-1.3705
-1.94153
-2.53699
-3.16649
-3.84242
-4.58173
-5.40942
-6.36526
-7.51875
-9.00506
-11.1238
-14.6523
-22.0089
31485.7
31445.4
31405.6
31366.5
31327.9
31290
31252.7
31216
31180
31144.7
31110.1
31076.3
31043.1
31010.8
30979.1
30948.3
30918.2
30888.8
30860.2
30832.4
30805.3
30778.9
30753.3
30728.3
30704
30680.3
30657.2
30634.8
30612.9
30591.5
30570.6
30550.2
30530.2
30510.6
30491.3
30472.5
30453.9
30435.5
30417.5
30399.6
30381.9
30364.3
30346.9
30329.5
30312.2
30294.9
30277.6
30260.2
30242.8
30225.2
30207.6
30189.7
30171.6
30153.3
30134.8
30115.9
30096.7
30077.1
30057.1
30036.6
30015.7
29994.3
29972.4
29950
29926.9
29903.3
29879
29854.1
29828.6
29802.3
29775.4
29747.8
29719.4
29690.4
29660.6
29630
29598.8
29566.7
29533.9
29500.4
29466.2
29431.1
29395.4
29359
29321.8
29283.9
29245.4
29206.1
29166.3
29125.8
-1.1434
-1.18656
-1.22776
-1.26781
-1.3074
-1.34701
-1.38676
-1.42633
-1.46501
-1.50177
-1.53543
-1.56481
-1.58887
-1.60683
-1.61818
-1.62265
-1.62015
-1.61073
-1.59446
-1.57148
-1.54199
-1.50626
-1.46465
-1.41764
-1.3658
-1.30974
-1.25009
-1.18749
-1.12253
-1.05578
-0.987769
-0.918961
-0.849764
-0.780499
-0.711396
-0.642601
-0.574192
-0.506205
-0.438658
-0.371561
-0.30491
-0.238673
-0.172766
-0.107042
-0.0412902
0.0247415
0.09131
0.158633
0.226853
0.296005
0.366017
0.436713
0.507835
0.579065
0.650044
0.720386
0.78969
0.85755
0.923585
0.987452
1.04887
1.10764
1.1636
1.21663
1.26663
1.31344
1.35691
1.39683
1.43305
1.46544
1.49392
1.51849
1.53919
1.55604
1.56902
1.57809
1.58318
1.58424
1.58129
1.57442
1.56379
1.54958
1.53188
1.51066
1.48572
1.45669
1.42312
1.38454
1.3406
1.29112
-1.90972
-1.98053
-2.04796
-2.11356
-2.17879
-2.24462
-2.31134
-2.37842
-2.4445
-2.50766
-2.56564
-2.61625
-2.65762
-2.68837
-2.70772
-2.71531
-2.71111
-2.69526
-2.66793
-2.62934
-2.57976
-2.51961
-2.44951
-2.37028
-2.2829
-2.18846
-2.08806
-1.98277
-1.87361
-1.76153
-1.64743
-1.53211
-1.41628
-1.30048
-1.18508
-1.07031
-0.956242
-0.842911
-0.730329
-0.618516
-0.507496
-0.397246
-0.287649
-0.178455
-0.06928
0.0403542
0.150944
0.262916
0.376545
0.491907
0.608862
0.727089
0.846121
0.9654
1.08431
1.20218
1.31831
1.43202
1.54261
1.64949
1.75219
1.85037
1.94381
2.03238
2.11592
2.19421
2.26693
2.33375
2.39431
2.44837
2.49584
2.53676
2.57121
2.5993
2.62102
2.63624
2.64479
2.64653
2.64145
2.62975
2.61179
2.58795
2.55852
2.5235
2.48251
2.43487
2.37967
2.31599
2.24307
2.16054
-2.68271
-2.77914
-2.87052
-2.95962
-3.04905
-3.14068
-3.23516
-3.33166
-3.42795
-3.52072
-3.60619
-3.68072
-3.74135
-3.78607
-3.81391
-3.82466
-3.81858
-3.79604
-3.75737
-3.70276
-3.6325
-3.54706
-3.44729
-3.33441
-3.20994
-3.07554
-2.93286
-2.78343
-2.62871
-2.47002
-2.30867
-2.14585
-1.9826
-1.81974
-1.65776
-1.49688
-1.33714
-1.17846
-1.02082
-0.864269
-0.708922
-0.554841
-0.401927
-0.24983
-0.0979323
0.0545766
0.208562
0.364774
0.523694
0.685449
0.849802
1.01622
1.18395
1.35216
1.51993
1.68632
1.85029
2.0108
2.1668
2.31737
2.46181
2.59969
2.73083
2.85514
2.97253
3.08272
3.18521
3.27939
3.36463
3.44051
3.50691
3.564
3.61209
3.65142
3.68203
3.70366
3.71587
3.71829
3.71081
3.69377
3.66789
3.63404
3.59289
3.54459
3.48857
3.42362
3.34811
3.26038
3.15909
3.04348
-3.46646
-3.58509
-3.69646
-3.8053
-3.91625
-4.03275
-4.15617
-4.28533
-4.41655
-4.54438
-4.66259
-4.76532
-4.84807
-4.90818
-4.94478
-4.95832
-4.94981
-4.92016
-4.86981
-4.79881
-4.70715
-4.59521
-4.46401
-4.3153
-4.15135
-3.97461
-3.7874
-3.59178
-3.38954
-3.18239
-2.97205
-2.76022
-2.5484
-2.33774
-2.12885
-1.92183
-1.71648
-1.51249
-1.30971
-1.10826
-0.908492
-0.710715
-0.514981
-0.320862
-0.127406
0.0667379
0.263048
0.462811
0.666846
0.875344
1.08788
1.30355
1.52121
1.73966
1.95768
2.17405
2.38739
2.59621
2.79895
2.99421
3.18101
3.35888
3.5278
3.68802
3.83966
3.98244
4.11562
4.23803
4.34856
4.44643
4.53153
4.60435
4.66569
4.71623
4.75609
4.78475
4.80118
4.80441
4.79404
4.77062
4.73557
4.69073
4.63765
4.57687
4.50758
4.42766
4.33423
4.22436
4.09572
3.94697
-4.26619
-4.40138
-4.52593
-4.64789
-4.77542
-4.91484
-5.06895
-5.23604
-5.41009
-5.58195
-5.74129
-5.8787
-5.98742
-6.06416
-6.10889
-6.12378
-6.11154
-6.07412
-6.01202
-5.92463
-5.81107
-5.67114
-5.50599
-5.31818
-5.11121
-4.88879
-4.65412
-4.4097
-4.15749
-3.89941
-3.63764
-3.3746
-3.11258
-2.85324
-2.59727
-2.34444
-2.09392
-1.84482
-1.59671
-1.34989
-1.10522
-0.863672
-0.625734
-0.390963
-0.157888
0.0757604
0.312542
0.554685
0.803565
1.05942
1.32143
1.58801
1.85735
2.12777
2.39783
2.66614
2.93103
3.1904
3.44187
3.68326
3.9131
4.13095
4.33734
4.53327
4.71954
4.89605
5.06153
5.21383
5.35073
5.47077
5.57387
5.66125
5.73488
5.79641
5.84633
5.88347
5.90553
5.91013
5.89609
5.86425
5.81738
5.75933
5.69352
5.62145
5.54192
5.45117
5.34406
5.21545
5.06136
4.87959
-5.09045
-5.23303
-5.35922
-5.48261
-5.61766
-5.77607
-5.96336
-6.17709
-6.40715
-6.63795
-6.85198
-7.03382
-7.17324
-7.26663
-7.3164
-7.32869
-7.30995
-7.26401
-7.19106
-7.08856
-6.95335
-6.78378
-6.58099
-6.34901
-6.09369
-5.82095
-5.53523
-5.23915
-4.9342
-4.62203
-4.30533
-3.98779
-3.67316
-3.3641
-3.06137
-2.76391
-2.46949
-2.17588
-1.88201
-1.58853
-1.29754
-1.01151
-0.731977
-0.458654
-0.189208
0.0802791
0.354343
0.636907
0.930302
1.23475
1.54852
1.86866
2.19211
2.51659
2.84071
3.16338
3.48285
3.79621
4.0996
4.38924
4.66277
4.91986
5.16227
5.39279
5.61384
5.8259
6.02679
6.21223
6.37758
6.51994
6.63926
6.73841
6.82192
6.8938
6.9554
7.00438
7.03551
7.04316
7.02426
6.97998
6.91578
6.8396
6.75887
6.67725
6.59285
6.4987
6.38527
6.24363
6.06725
5.85273
-5.953
-6.08833
-6.19661
-6.30061
-6.42636
-6.5959
-6.81993
-7.09496
-7.40351
-7.71852
-8.00944
-8.25047
-8.42581
-8.53238
-8.57835
-8.57877
-8.54801
-8.49326
-8.41314
-8.30005
-8.14559
-7.94472
-7.6985
-7.41391
-7.10172
-6.77224
-6.43168
-6.08178
-5.7217
-5.35158
-4.9746
-4.59711
-4.22608
-3.86615
-3.51819
-3.17926
-2.84414
-2.50756
-2.16697
-1.82378
-1.48289
-1.15015
-0.829396
-0.520855
-0.220657
0.0781561
0.38387
0.703522
1.04113
1.39669
1.7665
2.14463
2.52551
2.90609
3.28587
3.66541
4.04369
4.41664
4.77736
5.11872
5.43638
5.73026
6.00465
6.26629
6.52146
6.77222
7.0147
7.23993
7.43799
7.60272
7.73413
7.83859
7.92618
8.00646
8.08313
8.15151
8.19979
8.21494
8.1895
8.12492
8.03196
7.92696
7.82604
7.73757
7.65839
7.57449
7.46763
7.32231
7.12853
6.88176
-6.87768
-6.98245
-7.03994
-7.08701
-7.17167
-7.33687
-7.60272
-7.96426
-8.39035
-8.83355
-9.23855
-9.56154
-9.77723
-9.88523
-9.90575
-9.87363
-9.82049
-9.75895
-9.68259
-9.57105
-9.40458
-9.17092
-8.87122
-8.5185
-8.1346
-7.73944
-7.34157
-6.93905
-6.52364
-6.09097
-5.64462
-5.19713
-4.76303
-4.35096
-3.96201
-3.58914
-3.22089
-2.84503
-2.4557
-2.05574
-1.65654
-1.27156
-0.909262
-0.571065
-0.250135
0.0660689
0.393287
0.744223
1.12607
1.53803
1.97242
2.41657
2.8593
3.29668
3.73133
4.16923
4.61218
5.05461
5.48293
5.88226
6.24417
6.56865
6.8653
7.14902
7.43533
7.73035
8.02732
8.30662
8.54622
8.73334
8.86765
8.9629
9.04077
9.12416
9.2226
9.32739
9.41156
9.44497
9.4109
9.31054
9.16528
9.00825
8.8751
8.78434
8.73051
8.68319
8.60515
8.47061
8.2659
7.98775
-7.90682
-7.94412
-7.89767
-7.81847
-7.79992
-7.93161
-8.24624
-8.7391
-9.35102
-10.0021
-10.5842
-11.0257
-11.2822
-11.3625
-11.3075
-11.1973
-11.1036
-11.0445
-11.0013
-10.9198
-10.759
-10.4909
-10.1191
-9.66679
-9.18255
-8.70944
-8.25709
-7.81382
-7.34944
-6.84911
-6.31532
-5.777
-5.26744
-4.80172
-4.38197
-3.99167
-3.60798
-3.2013
-2.75924
-2.28616
-1.80932
-1.35998
-0.954165
-0.596203
-0.272644
0.0382261
0.368591
0.740379
1.16755
1.64687
2.16404
2.69024
3.2004
3.6908
4.17162
4.66525
5.18086
5.7123
6.22954
6.69896
7.10501
7.44626
7.74366
8.02702
8.33561
8.68453
9.06421
9.42919
9.72866
9.9386
10.056
10.1107
10.1459
10.2186
10.3513
10.5313
10.6947
10.7704
10.726
10.559
10.3138
10.0533
9.8613
9.77617
9.79146
9.83436
9.82231
9.71828
9.50736
9.20044
-9.11745
-9.02538
-8.80154
-8.46152
-8.21069
-8.2615
-8.63143
-9.34061
-10.2533
-11.2678
-12.1304
-12.7538
-13.0388
-13.0327
-12.7865
-12.495
-12.3349
-12.3051
-12.3733
-12.3805
-12.2661
-11.9583
-11.4808
-10.8593
-10.2127
-9.64782
-9.15793
-8.71741
-8.22549
-7.65398
-6.99113
-6.31412
-5.70743
-5.18509
-4.75844
-4.38363
-4.02722
-3.60762
-3.10662
-2.52121
-1.92181
-1.38515
-0.929672
-0.57143
-0.276596
-0.0174909
0.284365
0.656813
1.13389
1.70105
2.34243
2.98666
3.56954
4.09815
4.59283
5.12894
5.72597
6.3896
7.04413
7.60593
8.05804
8.38578
8.64092
8.86731
9.17634
9.59287
10.1206
10.6444
11.0382
11.2752
11.3324
11.2846
11.1948
11.2244
11.4095
11.7566
12.1017
12.2664
12.215
11.9176
11.4817
10.9973
10.691
10.6208
10.8101
11.0621
11.1694
11.1175
10.8847
10.5641
-10.6552
-10.2952
-9.87175
-8.97559
-8.18708
-8.13233
-8.5288
-9.64986
-11.0097
-12.753
-14.0219
-14.9702
-15.2155
-15.0495
-14.3315
-13.6045
-13.3793
-13.4257
-13.8342
-14.0173
-14.0524
-13.6713
-13.0508
-12.089
-11.126
-10.4791
-9.9885
-9.69591
-9.21701
-8.59121
-7.68813
-6.75066
-6.02664
-5.43131
-5.06089
-4.74976
-4.53806
-4.13177
-3.57611
-2.77687
-1.94433
-1.29373
-0.765443
-0.455649
-0.229397
-0.135064
0.0982258
0.422375
0.970378
1.64834
2.51676
3.37157
4.017
4.55459
4.95459
5.50512
6.17546
7.08035
7.99268
8.67131
9.19068
9.43033
9.58008
9.58909
9.86277
10.3416
11.1834
12.0473
12.5743
12.8716
12.7607
12.5197
12.0725
12.007
12.2354
12.9857
13.7694
14.0746
14.0591
13.4765
12.7203
11.6861
11.1816
11.0929
11.7394
12.4994
12.7469
12.778
12.3899
12.1532
-12.8459
-11.656
-11.6225
-9.33421
-7.1062
-7.35273
-7.38224
-9.61486
-11.2133
-14.921
-16.3749
-18.1982
-17.9841
-17.8609
-15.889
-13.9911
-14.0322
-14.0247
-15.6193
-15.867
-16.4379
-15.7288
-15.112
-13.3205
-11.5837
-11.0853
-10.5338
-10.9426
-10.42
-9.92765
-8.43456
-6.87978
-6.16046
-5.35362
-5.27787
-4.97268
-5.32909
-4.87098
-4.39632
-3.08051
-1.70485
-1.02618
-0.28659
-0.219551
0.00774181
-0.452773
-0.218831
-0.134496
0.619609
1.32124
2.71059
4.05791
4.61963
5.2091
5.09953
5.70869
6.28712
7.76026
9.27764
9.9659
10.726
10.6042
10.7217
9.92956
10.2535
10.5676
12.2141
13.9349
14.441
15.0554
14.376
14.0516
12.4
12.366
12.3094
14.1663
16.1256
16.344
16.7196
15.2852
14.3586
11.6114
11.0733
10.5058
12.5049
14.6742
14.6356
15.0421
13.6766
14.1495
-16.8515
-11.3516
-16.6194
-9.60541
-2.46103
-6.88441
-3.06179
-10.4915
-8.37813
-20.333
-18.1942
-24.3587
-20.6201
-23.3328
-17.3386
-11.5838
-14.7536
-12.3149
-19.3426
-17.2497
-20.6653
-17.6521
-18.8635
-14.4718
-10.257
-11.7667
-9.69531
-13.5291
-11.5784
-12.7041
-9.26885
-5.80483
-6.41935
-4.22228
-5.82436
-4.24214
-7.2923
-5.63341
-6.42717
-3.46982
-0.461142
-0.845881
1.16114
-0.213826
1.23559
-1.77027
-0.3204
-1.6558
0.344304
0.00373123
2.96473
5.87532
5.18209
6.8699
4.20916
5.95605
5.10993
8.3759
11.756
11.1564
13.5306
11.4327
13.1725
8.6619
10.6574
8.87363
13.1365
17.5705
16.1502
19.101
15.4788
17.493
10.3965
12.7558
9.62615
15.1975
20.9868
18.3853
21.9845
16.3607
18.6167
8.35385
11.0053
6.22083
13.0235
20.0266
15.8815
19.8562
12.3141
17.5423
-29.5746
4.45911
-39.3007
-10.0636
18.8422
-18.29
17.4623
-25.1101
14.7156
-46.0394
-8.05643
-44.7795
-13.966
-41.3426
-18.4432
3.67522
-23.5513
3.0267
-36.1996
-10.7003
-34.1502
-13.4921
-30.6835
-15.3684
-0.687039
-17.6048
-0.353302
-24.4455
-8.30675
-22.0487
-10.1446
1.14326
-10.7269
2.37994
-10.9563
3.15905
-16.0368
-2.86419
-13.86
-3.93311
5.66919
-4.10967
7.47912
-4.27523
8.87908
-9.50429
3.58866
-7.98056
3.43938
-6.06831
3.29143
12.8824
2.3159
14.7927
-3.02833
9.93728
-1.9889
8.82722
19.9653
8.06477
22.7752
6.73494
24.6237
-1.97476
16.5033
-1.52784
13.8126
29.6361
11.565
32.6117
8.46496
34.0536
-5.22383
21.0496
-5.5869
15.9145
37.9306
11.4971
40.5301
6.08901
40.9017
-13.5005
21.6446
-14.7497
13.2534
41.432
5.4346
41.254
-7.43747
29.5538
29080.5
29030.3
28979.4
28927.7
28875.3
28822.3
28768.8
28714.8
28660.3
28605.5
28550.4
28495
28439.4
28383.7
28327.9
1.23068
1.1573
1.07748
0.992563
0.904083
0.813561
0.722359
0.631575
0.542004
0.454134
0.36817
0.284076
0.201625
0.120443
0.0400575
2.05925
1.93583
1.8013
1.6581
1.50897
1.35661
1.20341
1.05123
0.901415
0.754748
0.611521
0.471623
0.33462
0.199841
0.0664562
2.90057
2.72534
2.53367
2.32944
2.11696
1.90039
1.68329
1.4684
1.25758
1.05184
0.851486
0.656236
0.465365
0.27783
0.0923752
3.76116
3.53124
3.27852
3.00895
2.72896
2.44459
2.16085
1.88139
1.60855
1.34346
1.08627
0.836416
0.59274
0.353719
0.117581
4.64895
4.35991
4.04021
3.69883
3.34527
2.98808
2.63398
2.28761
1.95162
1.62703
1.31364
1.01034
0.71541
0.426696
0.141803
5.57438
5.21943
4.82371
4.40101
3.96531
3.5285
3.09936
2.68335
2.28314
1.89926
1.53079
1.17581
0.831797
0.495814
0.164725
6.55134
6.11995
5.63438
5.11636
4.58664
4.06145
3.5517
3.06328
2.59821
2.15594
1.73431
1.33022
0.940071
0.559993
0.185989
7.59899
7.07442
6.47734
5.84331
5.20343
4.57916
3.98293
3.41994
2.89045
2.39188
1.92015
1.47057
1.03819
0.618044
0.205206
8.74579
8.10028
7.35633
6.57532
5.80395
5.06865
4.38106
3.74323
3.15181
2.60089
2.08375
1.59361
1.12398
0.66873
0.221974
10.0404
9.22306
8.27111
7.29659
6.36702
5.50959
4.72918
4.02014
3.37267
2.77608
2.22024
1.69602
1.19533
0.710864
0.235911
11.5819
10.4811
9.20894
7.97349
6.85731
5.87266
5.00547
4.23532
3.54259
2.91045
2.325
1.77482
1.25036
0.743434
0.246698
13.6008
11.9105
10.1094
8.53185
7.21618
6.11793
5.1844
4.37291
3.65183
2.99804
2.39438
1.82777
1.28778
0.765756
0.25412
16.7094
13.4495
10.7849
8.82758
7.35711
6.19807
5.24106
4.41996
3.69366
3.03535
2.4266
1.85397
1.30714
0.77763
0.258121
22.1691
14.3922
10.7535
8.63606
7.18585
6.07565
5.1616
4.37212
3.6674
3.02299
2.42253
1.85426
1.30906
0.779439
0.25883
-0.271596
-0.817633
-1.37235
-1.94196
-2.53348
-3.15515
-3.81723
-4.53331
-5.32255
-6.21428
-7.25781
-8.54546
-10.2721
-12.9016
-17.6438
-0.269981
-0.812441
-1.36248
-1.9254
-2.50698
-3.1136
-3.75261
-4.43265
-5.16392
-5.95827
-6.82758
-7.77391
-8.74103
-9.38804
-8.03363
-0.266615
-0.801938
-1.34358
-1.8958
-2.46297
-3.04945
-3.65942
-4.29632
-4.96132
-5.64992
-6.3435
-6.98768
-7.43219
-7.26323
-5.3827
-0.261774
-0.787001
-1.31724
-1.85572
-2.40544
-2.96888
-3.54747
-4.14036
-4.7421
-5.3377
-5.89343
-6.34021
-6.54902
-6.3266
-5.64329
-0.255751
-0.768534
-1.2851
-1.80773
-2.33827
-2.87771
-3.42551
-3.9782
-4.52691
-5.05268
-5.51861
-5.85823
-5.96443
-5.70995
-5.2092
-0.248822
-0.747395
-1.24867
-1.75415
-2.2648
-2.78065
-3.3001
-3.81876
-4.32747
-4.80875
-5.23101
-5.53869
-5.62957
-5.26413
-3.60439
-0.241232
-0.72433
-1.20924
-1.69688
-2.18761
-2.68098
-3.17516
-3.66621
-4.14698
-4.6054
-5.02239
-5.36985
-5.61109
-5.71683
-5.85287
-0.233187
-0.699957
-1.16785
-1.63734
-2.10847
-2.58063
-3.05231
-3.52077
-3.98194
-4.43055
-4.86156
-5.27472
-5.68632
-6.14823
-6.74106
-0.224849
-0.674763
-1.12527
-1.57655
-2.02848
-2.4805
-2.93158
-3.38034
-3.82558
-4.26775
-4.71272
-5.18052
-5.72629
-6.48837
-7.81971
-0.216346
-0.649118
-1.08208
-1.51523
-1.94831
-2.38089
-2.81234
-3.24226
-3.67125
-4.10287
-4.54772
-5.03199
-5.61574
-6.43289
-7.80775
-0.207776
-0.623301
-1.03872
-1.45385
-1.8684
-2.28193
-2.69405
-3.10471
-3.515
-3.92867
-4.35508
-4.81417
-5.34285
-5.98979
-6.71879
-0.199212
-0.597526
-0.995496
-1.39281
-1.78909
-2.18385
-2.57665
-2.96729
-3.35627
-3.74547
-4.13954
-4.54783
-4.98758
-5.48942
-6.12895
-0.190712
-0.571961
-0.952673
-1.33243
-1.71074
-2.08702
-2.46063
-2.83093
-3.19724
-3.55873
-3.91391
-4.25947
-4.58895
-4.8932
-5.15687
-0.182322
-0.546739
-0.910467
-1.27299
-1.63372
-1.99195
-2.34683
-2.69723
-3.04143
-3.37621
-3.69477
-3.98216
-4.20758
-4.32495
-4.4057
-0.174078
-0.521969
-0.869051
-1.21474
-1.55835
-1.89911
-2.23603
-2.56774
-2.89204
-3.20479
-3.49706
-3.74775
-3.90104
-3.78195
-2.70516
-0.16601
-0.497735
-0.828565
-1.15786
-1.4849
-1.80887
-2.12877
-2.4433
-2.75057
-3.04743
-3.32805
-3.58087
-3.78346
-3.90385
-4.01392
-0.158137
-0.474099
-0.789107
-1.10249
-1.41352
-1.72138
-2.02515
-2.32382
-2.61623
-2.90123
-3.17817
-3.44877
-3.72277
-4.03278
-4.4552
-0.150476
-0.451101
-0.750742
-1.04871
-1.34427
-1.63665
-1.92502
-2.20862
-2.48695
-2.7605
-3.03255
-3.31418
-3.63693
-4.08348
-4.85881
-0.143033
-0.428768
-0.713504
-0.996551
-1.27718
-1.55463
-1.82813
-2.097
-2.36092
-2.62069
-2.88013
-3.15094
-3.46498
-3.9057
-4.70173
-0.135813
-0.407109
-0.67741
-0.946028
-1.21224
-1.4753
-1.73439
-1.98874
-2.2377
-2.48103
-2.7197
-2.95759
-3.20492
-3.48106
-3.78021
-0.128816
-0.386124
-0.642455
-0.897135
-1.14946
-1.39865
-1.64389
-1.88418
-2.11831
-2.34451
-2.5597
-2.75759
-2.92473
-3.04033
-3.16029
-0.122038
-0.365802
-0.608621
-0.849845
-1.08879
-1.32471
-1.55676
-1.78384
-2.00436
-2.21555
-2.41162
-2.57889
-2.68023
-2.5965
-1.85656
-0.115473
-0.346122
-0.57587
-0.804105
-1.03019
-1.25342
-1.47303
-1.68799
-1.89684
-2.09701
-2.28346
-2.44592
-2.56414
-2.6083
-2.61747
-0.109111
-0.327053
-0.544149
-0.759832
-0.973521
-1.18461
-1.39247
-1.59635
-1.7953
-1.98791
-2.17188
-2.34362
-2.4994
-2.64434
-2.8294
-0.10294
-0.308559
-0.513391
-0.716916
-0.918624
-1.11802
-1.31464
-1.50809
-1.69812
-1.88476
-2.06871
-2.25236
-2.4421
-2.65247
-2.90884
-0.096948
-0.2906
-0.483521
-0.675239
-0.865303
-1.05331
-1.23897
-1.42218
-1.60326
-1.78342
-1.96569
-2.15682
-2.37042
-2.62859
-2.94441
-0.0911222
-0.273138
-0.454473
-0.634689
-0.813382
-0.990212
-1.16497
-1.33771
-1.50901
-1.68058
-1.85646
-2.04565
-2.26773
-2.56463
-3.02677
-0.0854521
-0.256141
-0.426187
-0.595178
-0.762731
-0.928523
-1.09234
-1.2542
-1.41454
-1.57471
-1.73793
-1.91161
-2.11305
-2.38586
-2.85869
-0.0799293
-0.239582
-0.398621
-0.556648
-0.713282
-0.86818
-1.02105
-1.17172
-1.32017
-1.46669
-1.61211
-1.75825
-1.90876
-2.06817
-2.21411
-0.074547
-0.223443
-0.371748
-0.519069
-0.665021
-0.80922
-0.951275
-1.09076
-1.22711
-1.35941
-1.48574
-1.60184
-1.69827
-1.7598
-1.81289
-0.0693001
-0.20771
-0.345547
-0.482429
-0.617961
-0.75173
-0.883263
-1.01195
-1.13685
-1.25623
-1.36646
-1.45907
-1.51199
-1.45728
-1.0333
-0.0641837
-0.192368
-0.320003
-0.446714
-0.572113
-0.695777
-0.81721
-0.935753
-1.0504
-1.15939
-1.25939
-1.34386
-1.40042
-1.41117
-1.39443
-0.0591927
-0.177404
-0.295092
-0.4119
-0.527456
-0.64136
-0.75315
-0.86225
-0.967861
-1.06878
-1.16309
-1.24801
-1.32066
-1.38416
-1.47258
-0.0543211
-0.1628
-0.270786
-0.377946
-0.483937
-0.588398
-0.690945
-0.791156
-0.888571
-0.982725
-1.07331
-1.16068
-1.24724
-1.33983
-1.44935
-0.049562
-0.148534
-0.247048
-0.344797
-0.44147
-0.536756
-0.630351
-0.721993
-0.811536
-0.899144
-0.985735
-1.07391
-1.16962
-1.28375
-1.42769
-0.0449077
-0.134583
-0.223837
-0.312389
-0.399959
-0.486277
-0.571104
-0.654279
-0.735836
-0.816262
-0.897052
-0.981908
-1.07921
-1.20695
-1.4014
-0.0403499
-0.120922
-0.201109
-0.280656
-0.35931
-0.436827
-0.512996
-0.587679
-0.660915
-0.733119
-0.80554
-0.881256
-0.967656
-1.08384
-1.28945
-0.0358803
-0.107525
-0.178822
-0.24954
-0.319444
-0.388306
-0.455911
-0.522078
-0.586702
-0.64982
-0.711735
-0.773181
-0.835419
-0.898633
-0.944104
-0.0314904
-0.0943682
-0.156936
-0.218983
-0.280296
-0.340651
-0.399818
-0.457542
-0.513528
-0.567352
-0.618251
-0.664555
-0.702504
-0.725749
-0.743988
-0.0271715
-0.0814248
-0.135407
-0.188933
-0.241807
-0.293817
-0.344719
-0.394208
-0.44185
-0.486912
-0.527955
-0.561727
-0.579801
-0.556344
-0.392248
-0.0229144
-0.0686679
-0.114194
-0.159333
-0.203915
-0.247747
-0.290596
-0.332152
-0.371957
-0.409257
-0.442707
-0.469795
-0.48594
-0.484605
-0.471342
-0.0187091
-0.0560678
-0.0932458
-0.130116
-0.166539
-0.202355
-0.237366
-0.271306
-0.303799
-0.334273
-0.361875
-0.38546
-0.404217
-0.42115
-0.457711
-0.0145448
-0.0435918
-0.0725096
-0.101206
-0.129582
-0.157518
-0.184873
-0.211461
-0.237037
-0.26128
-0.283828
-0.304473
-0.32376
-0.344064
-0.367018
-0.0104096
-0.0312043
-0.0519245
-0.0725173
-0.0929248
-0.113081
-0.132908
-0.152313
-0.171194
-0.189458
-0.207101
-0.224423
-0.242595
-0.265137
-0.303568
-0.00629099
-0.0188672
-0.0314257
-0.043954
-0.056439
-0.0688677
-0.0812298
-0.0935244
-0.105775
-0.118064
-0.13059
-0.143779
-0.158391
-0.175171
-0.189983
-0.00217596
-0.00654096
-0.0109456
-0.0154178
-0.0199887
-0.0246966
-0.0295938
-0.0347601
-0.0403246
-0.0464986
-0.0536137
-0.062139
-0.0726774
-0.086565
-0.113078
0.00194861
0.00581412
0.00958364
0.0131902
0.0165607
0.0196107
0.0222341
0.0242863
0.0255558
0.0257267
0.0243485
0.0209065
0.0153691
0.0108155
0.0258374
0.00609568
0.0182373
0.0302284
0.0419652
0.0533366
0.0642188
0.0744641
0.0838821
0.0922058
0.099035
0.103751
0.105416
0.102741
0.0946107
0.0837272
0.0102778
0.0307663
0.0510523
0.0709973
0.0904565
0.109274
0.127274
0.144244
0.159901
0.173819
0.185283
0.192948
0.193911
0.180329
0.123004
0.0145071
0.0434375
0.0721156
0.10037
0.128026
0.154902
0.180805
0.205525
0.228811
0.250315
0.269463
0.285145
0.295195
0.296434
0.29332
0.0187952
0.0562856
0.0934755
0.130162
0.166142
0.20121
0.235164
0.267809
0.298965
0.328459
0.356061
0.381264
0.402614
0.415577
0.40283
0.0231532
0.0693441
0.115187
0.160449
0.204897
0.248298
0.290437
0.331133
0.370283
0.407927
0.444338
0.480074
0.515873
0.552592
0.596946
0.0275922
0.0826456
0.137305
0.191306
0.244382
0.296268
0.346719
0.395539
0.442655
0.488264
0.533099
0.578856
0.628512
0.684327
0.72913
0.0321225
0.0962221
0.159883
0.22281
0.284697
0.345241
0.40414
0.461134
0.516084
0.569151
0.621236
0.674947
0.736895
0.823736
0.983286
0.0367545
0.110105
0.182975
0.255038
0.325952
0.39536
0.462888
0.528158
0.590828
0.650734
0.70826
0.765336
0.828013
0.912678
1.05784
0.0414975
0.124322
0.20663
0.288067
0.368256
0.44679
0.523212
0.596992
0.667501
0.733984
0.795615
0.851851
0.903887
0.959635
1.04637
0.0463595
0.138899
0.230893
0.321966
0.411715
0.499692
0.585375
0.668106
0.746978
0.820616
0.886736
0.941298
0.977207
0.9851
0.981854
0.051347
0.153855
0.255799
0.356788
0.456407
0.554191
0.649593
0.741905
0.830099
0.912484
0.985899
1.04371
1.07001
1.01833
0.712208
0.0564645
0.169203
0.281369
0.392565
0.502376
0.610349
0.715962
0.818568
0.917263
1.01059
1.09591
1.16803
1.21698
1.22827
1.21917
0.0617142
0.184952
0.307613
0.429306
0.549625
0.668147
0.784421
0.897951
1.00816
1.11428
1.21511
1.30846
1.39013
1.45238
1.47508
0.067097
0.2011
0.334531
0.467002
0.598125
0.72751
0.854787
0.979643
1.1019
1.22165
1.33952
1.457
1.57681
1.70397
1.85745
0.0726121
0.217647
0.362115
0.505636
0.647831
0.788336
0.926836
1.06314
1.19737
1.33033
1.46422
1.60393
1.75839
1.93732
2.11171
0.0782583
0.234588
0.390357
0.54519
0.69871
0.850555
1.00041
1.14808
1.29374
1.43837
1.58489
1.74063
1.92301
2.17384
2.6055
0.0840338
0.251918
0.419249
0.585654
0.750751
0.914155
1.07549
1.23442
1.39082
1.5451
1.69917
1.85885
2.04011
2.28481
2.69777
0.0899364
0.26963
0.448782
0.627023
0.803965
0.97919
1.15223
1.32251
1.48937
1.65199
1.80956
1.96207
2.11316
2.27894
2.50371
0.0959631
0.287716
0.478944
0.669289
0.858365
1.04574
1.23086
1.41298
1.59086
1.76237
1.92346
2.06629
2.17603
2.23214
2.27332
0.10211
0.306163
0.509716
0.712429
0.913941
1.11384
1.31159
1.50637
1.69677
1.87998
2.05005
2.19348
2.27615
2.19569
1.55914
0.10837
0.324953
0.541066
0.756396
0.970627
1.18342
1.39435
1.6028
1.80766
2.00669
2.19514
2.36285
2.48955
2.54543
2.5684
0.114738
0.344065
0.572951
0.801116
1.0283
1.25427
1.47882
1.7017
1.92257
2.14074
2.35462
2.56069
2.75211
2.91801
3.03662
0.121207
0.363479
0.605328
0.846504
1.0868
1.3261
1.56442
1.80197
2.03934
2.27776
2.5195
2.76868
3.03238
3.32343
3.68056
0.127774
0.383178
0.638162
0.892485
1.14598
1.3986
1.65052
1.90233
2.15537
2.41243
2.67918
2.96655
3.29364
3.68292
4.09352
0.134438
0.403162
0.671442
0.939025
1.20574
1.47155
1.73668
2.00181
2.26855
2.54034
2.8245
3.13681
3.51167
4.02757
4.88619
0.141205
0.423446
0.705191
0.986148
1.2661
1.54494
1.82279
2.10015
2.3782
2.6596
2.95024
3.26357
3.63171
4.13417
4.97257
0.148086
0.444064
0.739469
1.03395
1.3272
1.61899
1.90922
2.19795
2.48546
2.77241
3.06017
3.3522
3.65842
4.00741
4.4586
0.155097
0.465067
0.774371
1.08257
1.38927
1.69408
1.99665
2.29655
2.59307
2.88458
3.16707
3.43093
3.65535
3.80962
3.96532
0.162259
0.486521
0.810013
1.13222
1.45262
1.77069
2.08587
2.39744
2.70409
3.00296
3.28684
3.53697
3.70092
3.61077
2.60244
0.169594
0.508495
0.846524
1.18308
1.51754
1.84926
2.17756
2.50167
2.82046
3.13166
3.42996
3.70277
3.92285
4.04946
4.15376
0.177124
0.531057
0.884029
1.23536
1.58432
1.93014
2.2721
2.60954
2.94201
3.26922
3.5907
3.90509
4.20959
4.50355
4.79615
0.184866
0.554266
0.922645
1.28924
1.65322
2.01365
2.3697
2.72078
3.06715
3.41065
3.75624
4.11416
4.50351
4.95845
5.55256
0.192832
0.578165
0.962463
1.34491
1.72451
2.10015
2.47066
2.83523
3.19417
3.55053
3.91308
4.30126
4.75176
5.31654
5.98848
0.201021
0.60276
1.00353
1.40248
1.7985
2.19013
2.57567
2.95349
3.32287
3.686
4.05197
4.44495
4.92047
5.60002
6.7634
0.209412
0.628004
1.04582
1.46205
1.87546
2.28426
2.68596
3.0775
3.45582
3.81936
4.17194
4.53117
4.94731
5.54731
6.65998
0.217954
0.653761
1.08916
1.5235
1.95556
2.38323
2.80319
3.2106
3.59889
3.96019
4.28711
4.57772
4.84627
5.13837
5.49932
0.226557
0.679774
1.13318
1.58647
2.03861
2.48745
2.92904
3.35685
3.76057
4.12474
4.42733
4.63942
4.72865
4.68137
4.66043
0.235077
0.705625
1.17723
1.65015
2.12388
2.5966
3.06436
3.51972
3.9496
4.33188
4.6302
4.78628
4.70561
4.20588
2.71296
0.243312
0.730707
1.22031
1.71319
2.20974
2.70908
3.20817
3.70016
4.17155
4.59715
4.93167
5.09739
4.97331
4.41987
3.49656
0.250998
0.754219
1.26104
1.77361
2.29356
2.82163
3.3568
3.8948
4.42518
4.9255
5.35014
5.60955
5.53892
4.89045
3.59184
0.257821
0.775191
1.29773
1.82881
2.37165
2.92914
3.50334
4.09463
4.69956
5.30624
5.88311
6.35067
6.50547
5.81223
2.87039
0.263431
0.792533
1.32841
1.87574
2.43946
3.02491
3.63792
4.28487
4.9726
5.70749
6.49175
7.30868
8.06057
8.29528
5.95363
0.26747
0.805128
1.35106
1.91118
2.49207
3.10143
3.74879
4.4467
5.21283
6.07434
7.07744
8.31139
9.97423
12.5677
17.5406
17.0095
12.0007
9.48198
7.9034
6.74141
5.7968
4.98291
4.25632
3.59212
2.97427
2.3914
1.83484
1.29753
0.7734
0.256958
5.0452
7.6072
7.53448
6.89814
6.1635
5.43996
4.75207
4.10243
3.48766
2.90279
2.34264
1.80222
1.2768
0.761922
0.253285
1.72226
5.04309
5.97804
5.96087
5.57759
5.05814
4.49448
3.92419
3.36231
2.81403
2.28008
1.75909
1.24869
0.746067
0.248162
1.89885
4.13563
5.0825
5.27755
5.08595
4.70679
4.24135
3.74001
3.22741
2.71522
2.20842
1.70851
1.21512
0.726891
0.241926
3.15923
4.12371
4.70873
4.86249
4.72429
4.41514
4.01302
3.56352
3.09211
2.61255
2.13187
1.65331
1.1779
0.705407
0.234903
3.81124
4.37503
4.63416
4.64993
4.4811
4.18786
3.81744
3.40212
2.96237
2.51054
2.05376
1.59585
1.13859
0.682502
0.227381
5.03865
4.83761
4.72832
4.56534
4.32407
4.01398
3.65289
3.25757
2.8409
2.41187
1.97634
1.53785
1.0984
0.658892
0.219595
5.66685
5.23617
4.85949
4.53491
4.21462
3.87531
3.51198
3.12772
2.7279
2.31762
1.90086
1.48046
1.05819
0.635103
0.211723
6.72784
5.59692
4.95424
4.50129
4.11817
3.75316
3.38546
3.00856
2.62206
2.22775
1.82785
1.42428
1.01849
0.611484
0.203886
6.79186
5.61832
4.91699
4.41897
4.00894
3.6327
3.26519
2.89595
2.52154
2.14168
1.75729
1.36957
0.979599
0.588246
0.196158
5.97745
5.31152
4.73833
4.27535
3.87608
3.50602
3.14601
2.78682
2.4247
2.05866
1.68897
1.31636
0.94162
0.56549
0.18858
5.52749
4.94007
4.48296
4.08731
3.72276
3.37221
3.02614
2.67963
2.33049
1.97809
1.62261
1.26456
0.904567
0.543249
0.181166
4.76254
4.47792
4.18472
3.87752
3.55955
3.23516
2.90648
2.57416
2.23846
1.8996
1.55797
1.21406
0.868395
0.521514
0.173917
4.12056
4.02157
3.89603
3.67506
3.40066
3.10098
2.78922
2.47097
2.14853
1.82295
1.49485
1.16472
0.833035
0.500255
0.166824
2.58106
3.58351
3.67348
3.50959
3.25919
2.97507
2.67639
2.37061
2.06072