/*--------------------------------*- C++ -*----------------------------------*\
| =========                 |                                                 |
| \\      /  F ield         | OpenFOAM: The Open Source CFD Toolbox           |
|  \\    /   O peration     | Version:  5.x                                   |
|   \\  /    A nd           | Web:      www.OpenFOAM.org                      |
|    \\/     M anipulation  |                                                 |
\*---------------------------------------------------------------------------*/
FoamFile
{
    version     2.0;
    format      ascii;
    class       volScalarField;
    location    "1.2";
    object      gradTx;
}
// * * * * * * * * * * * * * * * * * * * * * * * * * * * * * * * * * * * * * //

dimensions      [0 -1 0 1 0 0 0];

internalField   nonuniform List<scalar> 
6300
(
-54.8764
-54.8243
-54.7199
-54.5628
-54.3526
-54.0887
-53.7707
-53.3985
-52.9719
-52.4917
-51.959
-51.3755
-50.7437
-50.0665
-49.3471
-54.9276
-54.8757
-54.7716
-54.615
-54.4053
-54.1419
-53.8242
-53.4519
-53.0248
-52.5435
-52.009
-51.4231
-50.7884
-50.108
-49.3855
-55.0298
-54.9783
-54.875
-54.7195
-54.5109
-54.2485
-53.9315
-53.5591
-53.1311
-52.6476
-52.1095
-51.5187
-50.878
-50.191
-49.4619
-55.1826
-55.1318
-55.0298
-54.876
-54.6693
-54.4088
-54.0931
-53.7212
-53.292
-52.8054
-52.262
-51.6636
-51.0131
-50.3152
-49.5753
-55.3853
-55.3355
-55.2354
-55.0843
-54.8808
-54.6234
-54.3102
-53.9395
-53.5095
-53.0193
-52.4688
-51.8596
-51.1951
-50.4809
-49.7244
-55.6368
-55.5884
-55.4912
-55.3441
-55.1453
-54.8928
-54.584
-54.2161
-53.7864
-53.2926
-52.7335
-52.1101
-51.4259
-50.6881
-49.907
-55.9356
-55.8893
-55.7961
-55.6545
-55.4626
-55.2175
-54.9159
-54.5537
-54.1265
-53.6303
-53.0619
-52.4205
-51.7097
-50.9379
-50.1201
-56.2798
-56.2362
-56.1482
-56.0143
-55.832
-55.5979
-55.3075
-54.9553
-54.5349
-54.0393
-53.4623
-52.7998
-52.0535
-51.2333
-50.3599
-56.6665
-56.6264
-56.5453
-56.4215
-56.2522
-56.0335
-55.7599
-55.4243
-55.0175
-54.529
-53.9472
-53.2623
-52.4706
-51.5811
-50.6222
-57.0924
-57.0566
-56.9841
-56.8731
-56.7209
-56.523
-56.2734
-55.9634
-55.5811
-55.1111
-54.5345
-53.8309
-52.9848
-51.9976
-50.905
-57.553
-57.5223
-57.4602
-57.365
-57.2341
-57.0633
-56.8464
-56.5737
-56.2314
-55.7991
-55.248
-54.5412
-53.6392
-52.5189
-51.2135
-58.0432
-58.0184
-57.9683
-57.8915
-57.7862
-57.6488
-57.474
-57.2529
-56.971
-56.6049
-56.1163
-55.446
-54.511
-53.2242
-51.5741
-58.5571
-58.5387
-58.5018
-58.4456
-58.3692
-58.2708
-58.147
-57.9918
-57.794
-57.5322
-57.1654
-56.6144
-55.7336
-54.2918
-52.0726
-59.0882
-59.0765
-59.0533
-59.0187
-58.9732
-58.917
-58.8503
-58.7723
-58.6799
-58.5637
-58.3976
-58.1111
-57.5161
-56.1356
-52.999
-59.6297
-59.6246
-59.6149
-59.6017
-59.5868
-59.5728
-59.564
-59.5663
-59.5886
-59.6439
-59.7488
-59.915
-60.0826
-59.7348
-55.6995
-48.6548
-47.9974
-47.316
-46.6115
-45.8844
-45.135
-44.3633
-43.5694
-42.7539
-41.9175
-41.0618
-40.1888
-39.3011
-38.402
-37.4949
-36.5835
-35.6718
-34.7634
-33.8624
-32.9724
-32.0972
-31.2403
-30.4051
-29.5947
-28.8119
-28.0594
-27.3392
-26.6532
-26.003
-25.3897
-24.8142
-24.2772
-23.7788
-23.3195
-22.8991
-22.5175
-22.1746
-21.8702
-21.6041
-21.376
-21.1857
-21.033
-20.9176
-20.8396
-20.7988
-20.7953
-20.8293
-20.9013
-21.0116
-21.1607
-21.3491
-21.5772
-21.8452
-22.1534
-22.5016
-22.8895
-23.3167
-23.7826
-24.2861
-24.8261
-25.4015
-26.0107
-26.6523
-27.3245
-28.0259
-28.7545
-29.5086
-30.2861
-31.0852
-31.9036
-32.7392
-33.5897
-34.4531
-35.3271
-36.2096
-37.0982
-37.9909
-38.8853
-39.7791
-40.6703
-41.5565
-42.4356
-43.3058
-44.1649
-45.0108
-45.8413
-46.6539
-47.446
-48.2147
-48.957
-48.6906
-48.0314
-47.3488
-46.6436
-45.9162
-45.1667
-44.3948
-43.6004
-42.7837
-41.9453
-41.0866
-40.2098
-39.3177
-38.4136
-37.5012
-36.5843
-35.667
-34.7532
-33.8468
-32.9515
-32.0712
-31.2095
-30.3698
-29.5553
-28.769
-28.0133
-27.2905
-26.6024
-25.9506
-25.336
-24.7597
-24.2221
-23.7236
-23.2642
-22.8439
-22.4626
-22.1201
-21.816
-21.5502
-21.3225
-21.1325
-20.9801
-20.8649
-20.7869
-20.746
-20.7421
-20.7757
-20.8471
-20.9567
-21.1051
-21.2929
-21.5206
-21.7884
-22.0966
-22.4452
-22.8338
-23.262
-23.7291
-24.2342
-24.7761
-25.3535
-25.9649
-26.6087
-27.2834
-27.9872
-28.7184
-29.4753
-30.2557
-31.0578
-31.8792
-32.7179
-33.5716
-34.4381
-35.3152
-36.2008
-37.0926
-37.9884
-38.886
-39.783
-40.6772
-41.5663
-42.4484
-43.3214
-44.1834
-45.0325
-45.8665
-46.6829
-47.4791
-48.2521
-48.9987
-48.7616
-48.0986
-47.4135
-46.7071
-45.9795
-45.2302
-44.4584
-43.6633
-42.8444
-42.002
-41.1374
-40.2529
-39.3516
-38.4372
-37.5139
-36.5859
-35.6575
-34.7326
-33.8153
-32.9095
-32.0189
-31.1475
-30.2987
-29.476
-28.6824
-27.9205
-27.1925
-26.5002
-25.845
-25.228
-24.6501
-24.1116
-23.6127
-23.1534
-22.7336
-22.3528
-22.0109
-21.7076
-21.4425
-21.2155
-21.0262
-20.8744
-20.7597
-20.6818
-20.6406
-20.6361
-20.6687
-20.7386
-20.8468
-20.9937
-21.1803
-21.407
-21.6744
-21.9827
-22.332
-22.7219
-23.1521
-23.6219
-24.1302
-24.6758
-25.2573
-25.873
-26.5215
-27.2009
-27.9097
-28.6462
-29.4085
-30.1948
-31.0029
-31.8305
-32.6755
-33.5354
-34.4081
-35.2913
-36.1831
-37.0812
-37.9835
-38.8875
-39.7909
-40.6912
-41.5863
-42.4739
-43.3525
-44.2203
-45.0755
-45.9164
-46.7405
-47.545
-48.3268
-49.0823
-48.8662
-48.1973
-47.5084
-46.8006
-46.0735
-45.3257
-44.5554
-43.7602
-42.9388
-42.0906
-41.2169
-40.3202
-39.4043
-38.4737
-37.5335
-36.5884
-35.643
-34.7014
-33.7677
-32.8457
-31.9396
-31.0532
-30.1906
-29.3554
-28.5508
-27.7795
-27.0437
-26.3451
-25.6851
-25.0646
-24.4844
-23.9447
-23.4456
-22.9868
-22.5677
-22.188
-21.8472
-21.5449
-21.281
-21.0551
-20.867
-20.7163
-20.6024
-20.5249
-20.4834
-20.4779
-20.5086
-20.5763
-20.6819
-20.8263
-21.0107
-21.2359
-21.5025
-21.8108
-22.1611
-22.553
-22.9862
-23.46
-23.9733
-24.5246
-25.1124
-25.7349
-26.3903
-27.0769
-27.793
-28.5372
-29.3078
-30.1029
-30.9202
-31.7574
-32.6119
-33.4812
-34.3631
-35.2554
-36.1564
-37.064
-37.9761
-38.89
-39.8032
-40.7128
-41.6165
-42.5123
-43.3987
-44.2746
-45.1389
-45.9899
-46.8256
-47.643
-48.4386
-49.2082
-49.0019
-48.324
-47.6301
-46.9213
-46.1967
-45.4535
-44.6876
-43.8947
-43.0713
-42.2159
-41.3295
-40.4151
-39.478
-38.5243
-37.5602
-36.5915
-35.6231
-34.6591
-33.7034
-32.7596
-31.8321
-30.9252
-30.0436
-29.1912
-28.3718
-27.588
-26.842
-26.1352
-25.4689
-24.844
-24.261
-23.7203
-23.2214
-22.7636
-22.3461
-21.9681
-21.6288
-21.328
-21.0655
-20.8412
-20.6549
-20.506
-20.3937
-20.317
-20.2753
-20.2683
-20.2964
-20.3605
-20.4619
-20.6024
-20.7833
-21.006
-21.2713
-21.5796
-21.931
-22.3255
-22.7627
-23.2421
-23.7623
-24.3218
-24.9185
-25.5502
-26.2149
-26.9109
-27.6366
-28.3909
-29.1725
-29.9795
-30.8095
-31.6598
-32.5273
-33.4092
-34.3032
-35.2074
-36.1204
-37.0406
-37.9659
-38.8936
-39.8203
-40.7427
-41.6579
-42.5639
-43.4598
-44.3454
-45.2207
-46.0849
-46.9364
-47.7719
-48.5871
-49.377
-49.1644
-48.4733
-47.7727
-47.0643
-46.3464
-45.6137
-44.8585
-44.0727
-43.2496
-42.3859
-41.482
-40.5428
-39.5757
-38.5898
-37.5937
-36.5944
-35.5972
-34.6054
-33.622
-32.6505
-31.6953
-30.7615
-29.8547
-28.9802
-28.142
-27.3428
-26.5843
-25.8677
-25.1938
-24.5636
-23.9778
-23.4363
-22.9386
-22.4833
-22.0687
-21.6932
-21.356
-21.0568
-20.7959
-20.5736
-20.3899
-20.2441
-20.1346
-20.0598
-20.0183
-20.0093
-20.0334
-20.0918
-20.1868
-20.3211
-20.4969
-20.7159
-20.9791
-21.2871
-21.6398
-22.0373
-22.4796
-22.9661
-23.4957
-24.0661
-24.6748
-25.3188
-25.9953
-26.7026
-27.4397
-28.2061
-29.0011
-29.8234
-30.6701
-31.5378
-32.4224
-33.3202
-34.2288
-35.147
-36.0742
-37.0099
-37.9525
-38.8986
-39.8437
-40.783
-41.7124
-42.6298
-43.5354
-44.4307
-45.3179
-46.1979
-47.0695
-47.9292
-48.7715
-49.5894
-49.3468
-48.6357
-47.9259
-47.2207
-46.5171
-45.8058
-45.073
-44.304
-43.4864
-42.6134
-41.6856
-40.7105
-39.7005
-38.67
-37.6317
-36.5947
-35.5635
-34.5397
-33.524
-32.5185
-31.5279
-30.5592
-29.62
-28.7175
-27.8565
-27.0395
-26.267
-25.5392
-24.8565
-24.2202
-23.6313
-23.0902
-22.5957
-22.1452
-21.7356
-21.3641
-21.0293
-20.7313
-20.4716
-20.2514
-20.0715
-19.9306
-19.8264
-19.7556
-19.7153
-19.7038
-19.7217
-19.7713
-19.8563
-19.981
-20.149
-20.3629
-20.6236
-20.931
-21.2849
-21.6857
-22.1336
-22.6291
-23.1709
-23.7563
-24.3812
-25.0411
-25.7321
-26.4522
-27.2013
-27.9806
-28.7911
-29.6324
-30.5012
-31.392
-32.2987
-33.216
-34.141
-35.0737
-36.0159
-36.9696
-37.934
-38.905
-39.8754
-40.8372
-41.7838
-42.7126
-43.6253
-44.5274
-45.425
-46.3224
-47.2192
-48.1111
-48.9902
-49.8467
-49.5385
-48.7958
-48.0722
-47.3744
-46.6986
-46.0285
-45.3397
-44.6052
-43.8027
-42.9197
-41.9571
-40.9283
-39.8551
-38.7616
-37.6681
-36.5867
-35.5195
-34.4627
-33.4115
-32.3653
-31.3295
-30.3146
-29.333
-28.3955
-27.5083
-26.6726
-25.8861
-25.1464
-24.4533
-23.809
-23.2167
-22.6777
-22.1902
-21.7492
-21.3484
-20.9829
-20.6504
-20.3518
-20.0911
-19.8723
-19.6975
-19.5654
-19.4711
-19.4085
-19.3715
-19.3571
-19.3654
-19.4006
-19.4694
-19.5792
-19.7362
-19.9436
-20.2016
-20.5087
-20.8636
-21.2668
-21.7202
-22.226
-22.784
-23.3903
-24.0381
-24.7194
-25.4278
-26.1607
-26.92
-27.7105
-28.5375
-29.4024
-30.3009
-31.2238
-32.1602
-33.101
-34.0423
-34.9868
-35.9415
-36.9138
-37.906
-38.9121
-39.9195
-40.9131
-41.8808
-42.8181
-43.7302
-44.6299
-45.5322
-46.447
-47.3756
-48.3109
-49.2406
-50.1505
-49.7234
-48.928
-48.1806
-47.4964
-46.8714
-46.2781
-45.6719
-45.0043
-44.2346
-43.3405
-42.3239
-41.2101
-40.0388
-38.8531
-37.6874
-36.5583
-35.4609
-34.3779
-33.2921
-32.1974
-31.1015
-30.0226
-28.983
-28.0013
-27.0865
-26.2355
-25.4385
-24.6872
-23.9803
-23.3236
-22.7259
-22.192
-21.7186
-21.2958
-20.9113
-20.5552
-20.2232
-19.9187
-19.651
-19.4305
-19.2631
-19.1464
-19.0713
-19.0251
-18.9964
-18.9784
-18.9713
-18.9825
-19.0245
-19.1105
-19.2515
-19.4521
-19.7098
-20.0186
-20.3738
-20.7763
-21.2322
-21.7487
-22.3284
-22.9655
-23.6474
-24.3592
-25.0889
-25.832
-26.5942
-27.3887
-28.2299
-29.1245
-30.0658
-31.0366
-32.0157
-32.9855
-33.9395
-34.8853
-35.8419
-36.8296
-37.8578
-38.9173
-39.9834
-41.0262
-42.0214
-42.9597
-43.8526
-44.7286
-45.6207
-46.5513
-47.5219
-48.518
-49.5188
-50.5033
-49.8774
-48.9905
-48.1976
-47.5325
-46.9984
-46.5458
-46.0926
-45.5504
-44.8458
-43.9375
-42.8307
-41.5747
-40.2435
-38.9158
-37.6542
-36.4844
-35.3819
-34.2972
-33.186
-32.0317
-30.8494
-29.6746
-28.5501
-27.5115
-26.5734
-25.721
-24.9257
-24.1649
-23.4356
-22.7541
-22.1441
-21.6198
-21.1748
-20.7879
-20.4342
-20.0936
-19.7574
-19.4336
-19.1439
-18.9133
-18.7565
-18.6686
-18.6305
-18.6175
-18.607
-18.585
-18.5516
-18.5213
-18.5169
-18.5636
-18.6819
-18.8793
-19.1455
-19.4623
-19.8166
-20.2097
-20.6577
-21.1811
-21.7908
-22.4769
-23.2144
-23.974
-24.7314
-25.4767
-26.2224
-27.0002
-27.846
-28.7797
-29.7888
-30.8381
-31.8847
-32.8932
-33.8488
-34.7686
-35.6976
-36.6871
-37.7649
-38.9129
-40.0808
-41.2079
-42.2436
-43.1663
-43.9989
-44.8035
-45.6536
-46.5974
-47.6307
-48.718
-49.82
-50.9084
-49.9649
-48.917
-48.0299
-47.3791
-47.0072
-46.8136
-46.6409
-46.3301
-45.7502
-44.8203
-43.5522
-42.0477
-40.4431
-38.8834
-37.4891
-36.3137
-35.2776
-34.2551
-33.1424
-31.9066
-30.5869
-29.2547
-27.9941
-26.8775
-25.9377
-25.1249
-24.3638
-23.5981
-22.8226
-22.0827
-21.4394
-20.9345
-20.5482
-20.2332
-19.9393
-19.6264
-19.2748
-18.9003
-18.5529
-18.2906
-18.1517
-18.1203
-18.1547
-18.2073
-18.2351
-18.2089
-18.1287
-18.0238
-17.9367
-17.9147
-17.9995
-18.2085
-18.5092
-18.8531
-19.2044
-19.5652
-19.9757
-20.4902
-21.1444
-21.9149
-22.7506
-23.5928
-24.392
-25.1217
-25.8051
-26.5144
-27.3363
-28.3271
-29.4545
-30.6439
-31.8091
-32.8776
-33.8101
-34.6389
-35.4667
-36.4175
-37.5709
-38.8798
-40.2371
-41.5209
-42.6282
-43.5027
-44.1852
-44.8124
-45.5509
-46.5143
-47.6611
-48.896
-50.1402
-51.3676
-49.9299
-48.6114
-47.521
-46.8235
-46.7584
-47.0506
-47.3875
-47.4966
-47.1584
-46.1901
-44.6139
-42.6648
-40.5781
-38.6129
-37.009
-35.9425
-35.1541
-34.3434
-33.2764
-31.9029
-30.3428
-28.7323
-27.2313
-25.9898
-25.1196
-24.4553
-23.8092
-23.046
-22.1595
-21.2729
-20.5362
-20.0794
-19.82
-19.6491
-19.4725
-19.2161
-18.8262
-18.3289
-17.8402
-17.4915
-17.3932
-17.4781
-17.6541
-17.8338
-17.9423
-17.9118
-17.7425
-17.5019
-17.2638
-17.1134
-17.1392
-17.4068
-17.8117
-18.2344
-18.5796
-18.85
-19.1449
-19.5993
-20.3312
-21.2602
-22.2786
-23.2745
-24.1535
-24.8342
-25.3517
-25.867
-26.5842
-27.6786
-29.0318
-30.4851
-31.8735
-33.0584
-33.9211
-34.5109
-35.059
-35.8565
-37.1531
-38.7769
-40.4994
-42.0878
-43.3478
-44.1151
-44.4507
-44.6605
-45.124
-46.1662
-47.5643
-49.0596
-50.484
-51.8645
-49.6456
-47.9769
-46.4463
-45.3575
-45.9953
-47.2237
-48.4619
-49.3071
-49.474
-48.4351
-46.2128
-43.48
-40.5383
-37.8226
-35.755
-35.171
-35.0631
-34.801
-33.8523
-32.1685
-30.1717
-28.0528
-26.0954
-24.5677
-24.0058
-23.76
-23.4239
-22.6723
-21.497
-20.248
-19.2307
-18.9407
-18.965
-19.0743
-19.1214
-18.999
-18.5332
-17.7459
-16.927
-16.3325
-16.3719
-16.7056
-17.149
-17.564
-17.8504
-17.8158
-17.4598
-16.9772
-16.4655
-16.0591
-15.9316
-16.4082
-17.0895
-17.728
-18.0638
-18.1001
-18.0854
-18.3096
-19.2352
-20.4773
-21.8398
-23.1255
-24.2015
-24.7825
-24.9021
-24.9296
-25.2895
-26.658
-28.4653
-30.4202
-32.2314
-33.7035
-34.4254
-34.4433
-34.2922
-34.5767
-36.2642
-38.532
-40.9548
-43.1275
-44.7768
-45.349
-44.8969
-44.143
-43.8631
-45.3053
-47.3268
-49.3244
-50.89
-52.2748
-48.5863
-47.1433
-44.7348
-41.404
-44.3806
-47.3819
-50.102
-52.0939
-53.5258
-52.384
-48.5466
-44.5958
-40.1733
-36.0989
-32.3651
-33.7142
-35.1944
-36.2479
-35.4872
-32.8853
-30.177
-27.1412
-24.3413
-21.7558
-22.4374
-23.1954
-23.6378
-22.9094
-20.9416
-18.8904
-16.8788
-17.3505
-17.9886
-18.59
-19.0154
-19.2776
-18.7042
-17.2096
-15.6917
-14.2617
-14.928
-15.7762
-16.6861
-17.4806
-18.2221
-18.1837
-17.3605
-16.4957
-15.5169
-14.6042
-13.8552
-15.1159
-16.4303
-17.6585
-17.9801
-17.4249
-16.6831
-16.0107
-17.6845
-19.5221
-21.5126
-23.2797
-24.9631
-25.3961
-24.5861
-23.5143
-22.5434
-25.0064
-27.6871
-30.563
-33.0781
-35.4297
-35.9438
-34.6196
-32.8986
-31.277
-34.5398
-38.0641
-41.77
-44.921
-47.7564
-48.0575
-45.7775
-42.9425
-40.1219
-43.6094
-47.1228
-50.2104
-51.5552
-51.8956
-43.7114
-47.6983
-44.3509
-28.3675
-42.7301
-47.9446
-52.7905
-55.6867
-61.2837
-60.2143
-51.0437
-46.3911
-39.3072
-33.8848
-21.6562
-32.0691
-35.9404
-40.3078
-39.7741
-33.7557
-30.6546
-25.8906
-22.279
-14.24
-20.7597
-23.0859
-25.5388
-24.9319
-20.5071
-17.4766
-10.9516
-15.5213
-17.066
-18.3603
-19.1452
-20.7606
-20.2027
-16.7078
-14.3307
-9.17325
-13.2232
-14.7589
-16.3906
-17.4747
-19.7182
-19.683
-17.3224
-16.1796
-14.4741
-12.9146
-8.88567
-13.7474
-15.8961
-18.8955
-19.1604
-17.0192
-15.1816
-10.3343
-15.8986
-18.3478
-21.5083
-23.5553
-27.5264
-27.8005
-24.648
-21.9546
-14.8533
-23.0416
-26.6287
-31.2259
-34.161
-39.8023
-40.1099
-35.3677
-31.3623
-20.944
-32.4389
-37.3348
-43.3842
-47.1688
-54.385
-54.4827
-47.4566
-41.7211
-27.2962
-41.8757
-47.5313
-53.6052
-53.6667
-46.9097
-49.7376
-50.5458
-51.3024
-52.0035
-52.6463
-53.2288
-53.75
-54.2098
-54.6086
-54.9473
-55.2271
-55.4491
-55.6145
-55.7242
-55.7789
-49.7839
-50.5966
-51.357
-52.061
-52.7056
-53.2891
-53.8104
-54.2697
-54.6676
-55.0052
-55.2838
-55.5047
-55.6691
-55.7781
-55.8325
-49.877
-50.699
-51.4671
-52.1769
-52.8253
-53.4105
-53.932
-54.3901
-54.786
-55.1211
-55.3971
-55.6156
-55.7781
-55.8857
-55.9394
-50.0178
-50.8546
-51.6347
-52.3533
-53.0071
-53.5946
-54.1158
-54.5717
-54.9641
-55.2951
-55.5669
-55.7816
-55.9409
-56.0463
-56.0988
-50.2081
-51.0659
-51.863
-52.5936
-53.2543
-53.8442
-54.364
-54.8158
-55.2026
-55.5272
-55.7927
-56.0017
-56.1565
-56.2587
-56.3096
-50.4504
-51.3372
-52.157
-52.9029
-53.5715
-54.1627
-54.679
-55.124
-55.5021
-55.8174
-56.0739
-56.2751
-56.4236
-56.5215
-56.5701
-50.7487
-51.6747
-52.5241
-53.2885
-53.9651
-54.5554
-55.0644
-55.4982
-55.8632
-56.1652
-56.4094
-56.6
-56.7402
-56.8323
-56.8781
-51.109
-52.0879
-52.9754
-53.7613
-54.444
-55.0287
-55.5242
-55.9403
-56.2861
-56.5697
-56.7974
-56.9741
-57.1036
-57.1885
-57.2306
-51.5406
-52.5916
-53.5277
-54.3363
-55.02
-55.5904
-56.0626
-56.4517
-56.7705
-57.0291
-57.2351
-57.3942
-57.5104
-57.5864
-57.624
-52.0577
-53.2095
-54.2066
-55.0352
-55.7081
-56.2492
-56.6834
-57.0327
-57.3142
-57.54
-57.7187
-57.856
-57.9561
-58.0215
-58.0539
-52.6821
-53.9811
-55.0527
-55.8887
-56.5266
-57.0133
-57.388
-57.6809
-57.9128
-58.0972
-58.2424
-58.354
-58.4353
-58.4884
-58.5147
-53.4464
-54.9788
-56.133
-56.9393
-57.4951
-57.887
-58.1728
-58.3892
-58.5583
-58.6925
-58.7987
-58.881
-58.9413
-58.9809
-59.0006
-54.4061
-56.354
-57.5603
-58.2403
-58.6275
-58.8651
-59.0254
-59.1438
-59.2377
-59.3148
-59.378
-59.4286
-59.4666
-59.4921
-59.5049
-55.7352
-58.4702
-59.5117
-59.8325
-59.909
-59.9188
-59.9179
-59.9218
-59.9331
-59.9499
-59.969
-59.9876
-60.0033
-60.0146
-60.0205
-58.5746
-62.2784
-62.1822
-61.6681
-61.257
-60.9812
-60.8035
-60.6912
-60.6223
-60.5818
-60.5594
-60.5481
-60.543
-60.5411
-60.5406
-60.1296
-60.1301
-60.1319
-60.1366
-60.1472
-60.1683
-60.2071
-60.2749
-60.3905
-60.5872
-60.93
-61.5661
-62.9066
-66.4135
-78.5587
-60.5828
-60.5878
-60.5989
-60.6179
-60.6487
-60.6968
-60.7709
-60.8852
-61.0624
-61.3423
-61.7989
-62.577
-63.9694
-66.4851
-70.0543
-61.0316
-61.0405
-61.0593
-61.0903
-61.1374
-61.2064
-61.3063
-61.451
-61.6619
-61.9736
-62.443
-63.1606
-64.2518
-65.824
-67.9502
-61.4733
-61.4853
-61.5104
-61.5508
-61.6101
-61.6938
-61.81
-61.9701
-62.1903
-62.4942
-62.9137
-63.4843
-64.1991
-64.7772
-63.4256
-61.9056
-61.9201
-61.9499
-61.9972
-62.065
-62.1581
-62.2825
-62.4465
-62.6597
-62.9331
-63.2784
-63.707
-64.2404
-65.0693
-67.6445
-62.3269
-62.3431
-62.3764
-62.4284
-62.5017
-62.5998
-62.7271
-62.8879
-63.0858
-63.3206
-63.585
-63.8558
-64.0755
-64.1478
-63.9955
-62.7358
-62.7533
-62.7889
-62.844
-62.9204
-63.0208
-63.1476
-63.3026
-63.4846
-63.686
-63.8867
-64.0391
-64.0116
-63.3816
-60.254
-63.1315
-63.1498
-63.1869
-63.2437
-63.3218
-63.4228
-63.5481
-63.6977
-63.8684
-64.0501
-64.222
-64.3464
-64.3647
-64.3493
-65.8542
-63.5134
-63.5322
-63.57
-63.6278
-63.7065
-63.8073
-63.9311
-64.0773
-64.2428
-64.419
-64.5902
-64.7264
-64.7395
-64.2606
-61.0131
-63.8812
-63.9001
-63.9383
-63.9964
-64.0751
-64.1754
-64.298
-64.4427
-64.6079
-64.7894
-64.9826
-65.191
-65.4545
-66.0938
-69.3813
-64.2346
-64.2536
-64.2918
-64.3497
-64.4279
-64.5274
-64.6489
-64.7931
-64.96
-65.1494
-65.3645
-65.6164
-65.907
-66.0872
-64.5964
-64.5737
-64.5926
-64.6305
-64.6878
-64.7652
-64.8634
-64.9836
-65.1269
-65.2946
-65.4895
-65.7206
-66.0141
-66.4342
-67.2404
-69.997
-64.8986
-64.9172
-64.9545
-65.011
-65.0871
-65.1837
-65.3018
-65.4428
-65.6085
-65.8021
-66.0331
-66.3231
-66.6916
-67.0384
-66.1206
-65.2093
-65.2275
-65.2642
-65.3195
-65.394
-65.4883
-65.6035
-65.7407
-65.9011
-66.0867
-66.3045
-66.5767
-66.9623
-67.7137
-70.1711
-65.5061
-65.524
-65.5597
-65.6137
-65.6862
-65.7779
-65.8895
-66.0216
-66.1743
-66.3466
-66.5381
-66.7505
-66.9773
-67.2035
-67.3942
-65.7893
-65.8067
-65.8415
-65.8939
-65.9643
-66.0531
-66.1607
-66.2874
-66.4319
-66.5909
-66.757
-66.9133
-66.9908
-66.7171
-64.7652
-66.0592
-66.0761
-66.1098
-66.1606
-66.2287
-66.3145
-66.4182
-66.5398
-66.6777
-66.8278
-66.9826
-67.13
-67.2464
-67.3955
-68.6184
-66.3162
-66.3325
-66.3652
-66.4143
-66.48
-66.5628
-66.6627
-66.7799
-66.9131
-67.0592
-67.2133
-67.3672
-67.4775
-67.3275
-65.5142
-66.5606
-66.5763
-66.6079
-66.6553
-66.7187
-66.7984
-66.8948
-67.0081
-67.1376
-67.2825
-67.444
-67.6336
-67.8875
-68.4138
-70.5833
-66.7927
-66.8079
-66.8383
-66.884
-66.9451
-67.0219
-67.1147
-67.2239
-67.3495
-67.4918
-67.6551
-67.8545
-68.1065
-68.3581
-67.7581
-67.013
-67.0276
-67.057
-67.1009
-67.1597
-67.2335
-67.3227
-67.4275
-67.5479
-67.6842
-67.8411
-68.038
-68.3237
-68.8932
-70.7198
-67.2218
-67.2359
-67.2642
-67.3065
-67.363
-67.4339
-67.5193
-67.6193
-67.7331
-67.8597
-67.9994
-68.1587
-68.3421
-68.5544
-68.7785
-67.4195
-67.4331
-67.4603
-67.5011
-67.5555
-67.6235
-67.7053
-67.8005
-67.9076
-68.0235
-68.1439
-68.2618
-68.3384
-68.2068
-67.0089
-67.6065
-67.6196
-67.6458
-67.6851
-67.7375
-67.8029
-67.8815
-67.9725
-68.074
-68.1818
-68.2901
-68.3926
-68.4774
-68.5989
-69.4524
-67.783
-67.7957
-67.821
-67.8589
-67.9094
-67.9726
-68.0484
-68.1362
-68.2339
-68.3374
-68.4403
-68.5347
-68.589
-68.4818
-67.4762
-67.9494
-67.9616
-67.9861
-68.0228
-68.0717
-68.133
-68.2065
-68.292
-68.3879
-68.4907
-68.5965
-68.7038
-68.8108
-68.9878
-69.9323
-68.106
-68.1178
-68.1415
-68.1771
-68.2245
-68.284
-68.3558
-68.4398
-68.535
-68.6394
-68.7515
-68.872
-68.9822
-68.9601
-67.9464
-68.2529
-68.2644
-68.2874
-68.3219
-68.368
-68.4259
-68.4961
-68.5787
-68.6736
-68.7802
-68.9007
-69.0465
-69.2433
-69.6203
-71.0031
-68.3906
-68.4017
-68.424
-68.4575
-68.5023
-68.5587
-68.6272
-68.7083
-68.802
-68.9089
-69.0322
-69.1846
-69.3774
-69.5815
-69.3062
-68.5192
-68.53
-68.5516
-68.5841
-68.6276
-68.6824
-68.7491
-68.828
-68.9194
-69.0235
-69.1437
-69.2937
-69.5016
-69.8748
-70.9542
-68.6389
-68.6494
-68.6704
-68.7019
-68.7441
-68.7973
-68.8618
-68.9381
-69.0259
-69.1244
-69.2343
-69.3617
-69.509
-69.677
-69.8487
-68.75
-68.7602
-68.7806
-68.8111
-68.852
-68.9035
-68.9659
-69.0393
-69.123
-69.2148
-69.3127
-69.415
-69.5001
-69.4759
-68.8788
-68.8527
-68.8626
-68.8823
-68.912
-68.9516
-69.0015
-69.0618
-69.1325
-69.2123
-69.2986
-69.388
-69.4792
-69.5651
-69.672
-70.1603
-68.9472
-68.9568
-68.976
-69.0048
-69.0432
-69.0916
-69.15
-69.2183
-69.2951
-69.3775
-69.4621
-69.5463
-69.6135
-69.6025
-69.1478
-69.0337
-69.043
-69.0616
-69.0896
-69.127
-69.174
-69.2308
-69.2971
-69.3719
-69.4525
-69.5363
-69.6242
-69.7144
-69.8404
-70.341
-69.1123
-69.1214
-69.1395
-69.1668
-69.2032
-69.249
-69.3043
-69.3692
-69.4427
-69.5227
-69.6077
-69.6995
-69.7884
-69.8176
-69.3932
-69.1832
-69.1921
-69.2098
-69.2364
-69.2719
-69.3166
-69.3708
-69.4344
-69.5069
-69.5868
-69.6743
-69.776
-69.9019
-70.1089
-70.7678
-69.2467
-69.2553
-69.2726
-69.2986
-69.3333
-69.3771
-69.4301
-69.4925
-69.5639
-69.6432
-69.7311
-69.8346
-69.9572
-70.0857
-70.016
-69.3027
-69.3112
-69.3282
-69.3536
-69.3876
-69.4304
-69.4822
-69.5434
-69.6134
-69.691
-69.7771
-69.879
-70.0065
-70.1995
-70.6694
-69.3516
-69.3599
-69.3765
-69.4014
-69.4347
-69.4767
-69.5275
-69.5873
-69.6554
-69.7305
-69.8121
-69.9048
-70.0082
-70.1203
-70.2284
-69.3932
-69.4014
-69.4177
-69.4422
-69.475
-69.5161
-69.5659
-69.6244
-69.6906
-69.7628
-69.8395
-69.9223
-70.002
-70.0432
-69.8789
-69.4279
-69.4359
-69.452
-69.4762
-69.5084
-69.5489
-69.5978
-69.6551
-69.7197
-69.7894
-69.8626
-69.9409
-70.0206
-70.1081
-70.3175
-69.4556
-69.4635
-69.4794
-69.5033
-69.5352
-69.5751
-69.6234
-69.6797
-69.7431
-69.8112
-69.8821
-69.9575
-70.0317
-70.0878
-70.0323
-69.4763
-69.4842
-69.5
-69.5237
-69.5553
-69.595
-69.6428
-69.6985
-69.7612
-69.8284
-69.8986
-69.9741
-70.0535
-70.1442
-70.3231
-69.4902
-69.4981
-69.5139
-69.5375
-69.569
-69.6085
-69.6561
-69.7116
-69.774
-69.8411
-69.9113
-69.9871
-70.0656
-70.1386
-70.1565
-69.4973
-69.5052
-69.521
-69.5446
-69.5761
-69.6156
-69.6633
-69.719
-69.7816
-69.8491
-69.92
-69.9973
-70.0797
-70.1705
-70.3038
-69.4975
-69.5054
-69.5213
-69.545
-69.5767
-69.6165
-69.6644
-69.7206
-69.7838
-69.8522
-69.9243
-70.003
-70.086
-70.1722
-70.2751
-69.4908
-69.4988
-69.5148
-69.5388
-69.5707
-69.6109
-69.6594
-69.7162
-69.7804
-69.8501
-69.924
-70.0048
-70.0881
-70.1618
-70.1815
-69.4772
-69.4853
-69.5015
-69.5258
-69.5582
-69.5989
-69.6481
-69.7058
-69.7712
-69.8426
-69.919
-70.0038
-70.095
-70.1881
-70.2709
-69.4566
-69.4648
-69.4813
-69.5059
-69.5388
-69.5802
-69.6303
-69.689
-69.7558
-69.829
-69.9081
-69.9976
-70.0986
-70.2209
-70.4343
-69.4289
-69.4373
-69.4541
-69.4792
-69.5127
-69.5549
-69.6059
-69.6658
-69.7339
-69.8087
-69.89
-69.9824
-70.0856
-70.1896
-70.2031
-69.3941
-69.4026
-69.4197
-69.4454
-69.4796
-69.5227
-69.5748
-69.6359
-69.7052
-69.7814
-69.8641
-69.9588
-70.07
-70.2207
-70.557
-69.3519
-69.3606
-69.3781
-69.4044
-69.4395
-69.4836
-69.5368
-69.5992
-69.6699
-69.747
-69.8298
-69.9228
-70.0252
-70.1221
-70.0548
-69.3022
-69.3112
-69.3292
-69.3561
-69.3922
-69.4374
-69.492
-69.5559
-69.628
-69.706
-69.7886
-69.8793
-69.9821
-70.1368
-70.6287
-69.2449
-69.2541
-69.2726
-69.3004
-69.3375
-69.384
-69.4403
-69.506
-69.5799
-69.6594
-69.7417
-69.8264
-69.9012
-69.9168
-69.5733
-69.1798
-69.1893
-69.2084
-69.237
-69.2752
-69.3233
-69.3814
-69.4493
-69.5258
-69.6082
-69.6931
-69.7795
-69.8594
-69.9453
-70.2834
-69.1067
-69.1165
-69.1362
-69.1657
-69.2052
-69.2549
-69.3151
-69.3857
-69.4657
-69.5526
-69.6435
-69.7362
-69.8114
-69.798
-69.3651
-69.0254
-69.0356
-69.0558
-69.0863
-69.1271
-69.1786
-69.241
-69.3146
-69.3987
-69.4917
-69.5925
-69.7041
-69.8229
-69.9414
-70.0427
-68.9357
-68.9462
-68.9671
-68.9985
-69.0407
-69.0939
-69.1587
-69.2353
-69.3236
-69.4228
-69.5341
-69.6661
-69.8325
-70.0962
-70.8072
-68.8374
-68.8481
-68.8697
-68.9021
-68.9456
-69.0006
-69.0675
-69.1469
-69.2387
-69.3428
-69.4613
-69.6032
-69.7727
-69.9396
-69.7565
-68.7302
-68.7412
-68.7635
-68.7969
-68.8417
-68.8983
-68.9672
-69.0488
-69.1433
-69.2503
-69.3723
-69.5202
-69.7126
-70.0254
-70.9211
-68.6139
-68.6253
-68.6481
-68.6825
-68.7286
-68.7867
-68.8574
-68.941
-69.037
-69.1448
-69.2652
-69.4055
-69.5668
-69.7057
-69.3469
-68.4883
-68.5
-68.5235
-68.5588
-68.6061
-68.6658
-68.7382
-68.8234
-68.9206
-69.0279
-69.1443
-69.2751
-69.4348
-69.731
-70.9178
-68.3532
-68.3652
-68.3893
-68.4255
-68.4741
-68.5353
-68.6095
-68.6965
-68.7951
-68.9022
-69.0133
-69.1237
-69.2058
-69.137
-68.1456
-68.2083
-68.2206
-68.2453
-68.2825
-68.3323
-68.3952
-68.4713
-68.5606
-68.6617
-68.771
-68.8828
-68.991
-69.0798
-69.1829
-69.8859
-68.0535
-68.0661
-68.0915
-68.1295
-68.1806
-68.2451
-68.3234
-68.4156
-68.5206
-68.6353
-68.7549
-68.8707
-68.9418
-68.8115
-67.7274
-67.8886
-67.9015
-67.9274
-67.9663
-68.0186
-68.0847
-68.1652
-68.2606
-68.3706
-68.4938
-68.6296
-68.7805
-68.9416
-69.1018
-69.2367
-67.7133
-67.7265
-67.7529
-67.7927
-67.8461
-67.9137
-67.9962
-68.0946
-68.2092
-68.3409
-68.4937
-68.6823
-68.9399
-69.409
-70.8564
-67.5275
-67.5409
-67.5678
-67.6084
-67.6628
-67.7316
-67.8158
-67.9162
-68.034
-68.1709
-68.3328
-68.5352
-68.7894
-69.0361
-68.5492
-67.331
-67.3446
-67.372
-67.4132
-67.4685
-67.5383
-67.6234
-67.7248
-67.8434
-67.9809
-68.1437
-68.351
-68.6422
-69.1719
-70.8696
-67.1236
-67.1375
-67.1653
-67.2071
-67.2631
-67.3336
-67.4192
-67.5204
-67.6375
-67.7708
-67.9237
-68.1078
-68.3272
-68.496
-67.6768
-66.9052
-66.9193
-66.9476
-66.99
-67.0467
-67.1178
-67.2036
-67.3041
-67.4183
-67.5444
-67.6819
-67.839
-68.0452
-68.5054
-70.641
-66.6756
-66.69
-66.7188
-66.7619
-66.8193
-66.8912
-66.9773
-67.0772
-67.1887
-67.3075
-67.4266
-67.5351
-67.5849
-67.3505
-65.3983
-66.4346
-66.4493
-66.4787
-66.5226
-66.5811
-66.6539
-66.7409
-66.8412
-66.9521
-67.0677
-67.1786
-67.2711
-67.3197
-67.388
-68.5233
-66.1821
-66.1972
-66.2272
-66.2721
-66.3318
-66.4062
-66.4948
-66.597
-66.71
-66.8286
-66.9434
-67.0366
-67.0388
-66.6837
-64.6713
-65.9178
-65.9333
-65.9641
-66.0102
-66.0715
-66.1478
-66.2389
-66.3442
-66.462
-66.5894
-66.7233
-66.8642
-67.0041
-67.1297
-67.2203
-65.6415
-65.6574
-65.6891
-65.7366
-65.7997
-65.8784
-65.9726
-66.0818
-66.2054
-66.3429
-66.4984
-66.6915
-66.9773
-67.5991
-69.8489
-65.3528
-65.3692
-65.4019
-65.451
-65.5163
-65.5977
-65.6952
-65.8085
-65.9371
-66.0814
-66.2474
-66.4535
-66.7152
-66.9373
-65.9559
-65.0513
-65.0683
-65.1022
-65.153
-65.2208
-65.3053
-65.4064
-65.5235
-65.6557
-65.8024
-65.9685
-66.1758
-66.4786
-67.1103
-69.4982
-64.7368
-64.7543
-64.7895
-64.8422
-64.9126
-65.0007
-65.1059
-65.2273
-65.3622
-65.5072
-65.6612
-65.8307
-66.0116
-66.0631
-64.5814
-64.4088
-64.4269
-64.4632
-64.518
-64.5914
-64.6835
-64.7938
-64.9206
-65.0596
-65.2033
-65.3429
-65.4769
-65.6326
-66.0797
-68.7854
-64.067
-64.0856
-64.123
-64.1797
-64.2563
-64.353
-64.4698
-64.6046
-64.7517
-64.8996
-65.0287
-65.107
-65.0491
-64.5273
-61.5887
-63.711
-63.7299
-63.7682
-63.8266
-63.9062
-64.0081
-64.1328
-64.2791
-64.4414
-64.6065
-64.7498
-64.8307
-64.7858
-64.6525
-65.6626
-63.3406
-63.3596
-63.3982
-63.4577
-63.5398
-63.6467
-63.7803
-63.9415
-64.1271
-64.3261
-64.5141
-64.641
-64.5819
-63.9831
-61.3735
-62.9557
-62.9744
-63.0126
-63.0721
-63.1554
-63.2661
-63.4083
-63.5861
-63.8015
-64.0509
-64.3208
-64.5796
-64.7508
-64.7094
-64.3675
-62.5566
-62.5744
-62.6111
-62.6689
-62.7511
-62.8629
-63.0111
-63.2038
-63.4503
-63.7589
-64.1354
-64.5782
-65.0656
-65.6436
-67.1392
-62.144
-62.1602
-62.1939
-62.2476
-62.3255
-62.434
-62.5824
-62.7833
-63.054
-63.4175
-63.904
-64.5449
-65.3154
-65.94
-65.0807
-61.719
-61.7327
-61.7616
-61.8084
-61.8778
-61.9769
-62.1168
-62.3135
-62.5914
-62.9881
-63.5654
-64.4209
-65.6648
-67.2662
-68.3239
-61.2832
-61.2936
-61.3159
-61.3526
-61.4085
-61.491
-61.6111
-61.7865
-62.0443
-62.4312
-63.0336
-64.0263
-65.7641
-68.9692
-74.55
-60.839
-60.8453
-60.859
-60.8825
-60.9201
-60.9782
-61.0668
-61.2013
-61.4059
-61.7222
-62.231
-63.1135
-64.8426
-69.022
-82.4318
-82.7165
-69.2519
-65.0107
-63.2558
-62.3684
-61.8629
-61.5532
-61.3556
-61.2273
-61.1437
-61.0895
-61.0549
-61.0335
-61.0212
-61.0156
-75.3108
-69.1853
-65.8537
-64.0963
-63.1135
-62.5267
-62.1554
-61.9106
-61.7457
-61.6335
-61.5571
-61.5057
-61.4721
-61.4519
-61.4424
-68.0762
-67.1775
-65.6016
-64.3983
-63.5836
-63.0391
-62.6679
-62.4093
-62.227
-62.0979
-62.0067
-61.9431
-61.9004
-61.8741
-61.8616
-65.5764
-65.6389
-65.0889
-64.43
-63.8658
-63.4293
-63.1003
-62.8541
-62.6708
-62.5353
-62.4363
-62.3652
-62.3163
-62.2857
-62.271
-63.0475
-64.5245
-64.65
-64.3954
-64.0592
-63.7429
-63.4735
-63.2542
-63.081
-62.947
-62.8456
-62.7709
-62.7184
-62.6851
-62.669
-64.6986
-64.3476
-64.4732
-64.417
-64.2386
-64.022
-63.81
-63.6215
-63.4633
-63.3355
-63.2356
-63.1602
-63.1062
-63.0715
-63.0546
-61.4169
-63.8387
-64.4209
-64.523
-64.4443
-64.296
-64.1283
-63.9668
-63.8239
-63.7042
-63.6078
-63.5335
-63.4796
-63.4444
-63.4272
-65.7523
-64.6062
-64.7001
-64.7539
-64.6981
-64.5814
-64.4404
-64.2982
-64.168
-64.056
-63.964
-63.8918
-63.8387
-63.8038
-63.7866
-61.615
-64.5115
-65.0053
-65.0604
-64.9939
-64.8815
-64.7513
-64.6202
-64.499
-64.3934
-64.3055