/*--------------------------------*- C++ -*----------------------------------*\
| =========                 |                                                 |
| \\      /  F ield         | OpenFOAM: The Open Source CFD Toolbox           |
|  \\    /   O peration     | Version:  5.x                                   |
|   \\  /    A nd           | Web:      www.OpenFOAM.org                      |
|    \\/     M anipulation  |                                                 |
\*---------------------------------------------------------------------------*/
FoamFile
{
    version     2.0;
    format      ascii;
    class       volScalarField;
    location    "2.7";
    object      gradTx;
}
// * * * * * * * * * * * * * * * * * * * * * * * * * * * * * * * * * * * * * //

dimensions      [0 -1 0 1 0 0 0];

internalField   nonuniform List<scalar> 
6300
(
-48.2549
-48.2279
-48.1738
-48.0924
-47.9835
-47.847
-47.6826
-47.4905
-47.271
-47.0247
-46.7527
-46.4566
-46.138
-45.799
-45.4414
-48.2818
-48.2549
-48.201
-48.1198
-48.0111
-47.8747
-47.7102
-47.5178
-47.2976
-47.0503
-46.7769
-46.479
-46.1584
-45.8175
-45.4584
-48.3355
-48.3088
-48.2553
-48.1746
-48.0664
-47.9302
-47.7658
-47.5728
-47.3513
-47.1019
-46.8255
-46.5238
-46.1991
-45.8541
-45.4917
-48.4158
-48.3894
-48.3366
-48.2568
-48.1494
-48.014
-47.8497
-47.6561
-47.4329
-47.1804
-46.8994
-46.5917
-46.2601
-45.9082
-45.54
-48.5223
-48.4965
-48.4447
-48.3663
-48.2605
-48.1264
-47.9629
-47.769
-47.5438
-47.2872
-46.9998
-46.6834
-46.3414
-45.9785
-45.6007
-48.6544
-48.6295
-48.5793
-48.5031
-48.3999
-48.2682
-48.1064
-47.9129
-47.686
-47.4248
-47.1291
-46.8007
-46.4434
-46.0638
-45.6706
-48.8113
-48.7876
-48.7398
-48.6669
-48.5675
-48.4399
-48.2816
-48.0901
-47.8626
-47.5967
-47.2911
-46.9467
-46.5676
-46.1626
-45.7445
-48.9917
-48.9697
-48.9252
-48.857
-48.7634
-48.6421
-48.4899
-48.3031
-48.0774
-47.8081
-47.4918
-47.1272
-46.7178
-46.2743
-45.8158
-49.194
-49.1742
-49.1341
-49.0723
-48.9868
-48.875
-48.7328
-48.5551
-48.3355
-48.0666
-47.7408
-47.3525
-46.9021
-46.401
-45.8765
-49.416
-49.399
-49.3644
-49.311
-49.2366
-49.1381
-49.0109
-48.8487
-48.6428
-48.3818
-48.0521
-47.64
-47.1371
-46.551
-45.9181
-49.6548
-49.6412
-49.6135
-49.5706
-49.5103
-49.4297
-49.324
-49.1861
-49.0051
-48.7655
-48.4456
-48.0181
-47.4554
-46.7476
-45.9352
-49.907
-49.8974
-49.8777
-49.8472
-49.8042
-49.7463
-49.6693
-49.5662
-49.4259
-49.2295
-48.9469
-48.5312
-47.9189
-47.0489
-45.9347
-50.1687
-50.1634
-50.1526
-50.1361
-50.1129
-50.0819
-50.0403
-49.9836
-49.9025
-49.7797
-49.581
-49.2409
-48.6399
-47.5942
-45.9596
-50.4354
-50.4346
-50.4332
-50.4313
-50.4294
-50.4277
-50.4265
-50.425
-50.4208
-50.4056
-50.3566
-50.2115
-49.8054
-48.7281
-46.1891
-50.7027
-50.7063
-50.714
-50.7265
-50.7454
-50.773
-50.8126
-50.8692
-50.95
-51.0654
-51.228
-51.4429
-51.6418
-51.3234
-47.5894
-45.0992
-44.7758
-44.4412
-44.095
-43.7365
-43.3646
-42.9779
-42.5753
-42.1559
-41.7194
-41.266
-40.7964
-40.3123
-39.8156
-39.3086
-38.7943
-38.2752
-37.7546
-37.2353
-36.7205
-36.2131
-35.716
-35.2322
-34.7641
-34.3142
-33.8844
-33.4763
-33.0913
-32.7301
-32.3934
-32.0813
-31.7936
-31.53
-31.2896
-31.0717
-30.8754
-30.6997
-30.5435
-30.4058
-30.2857
-30.1822
-30.0944
-30.0216
-29.9632
-29.9187
-29.8881
-29.8715
-29.8694
-29.8826
-29.9119
-29.9581
-30.0222
-30.1049
-30.2067
-30.3279
-30.4687
-30.6286
-30.8074
-31.0043
-31.2184
-31.4486
-31.6938
-31.9529
-32.2247
-32.5081
-32.8022
-33.106
-33.4185
-33.7388
-34.0662
-34.3998
-34.7389
-35.0829
-35.4311
-35.7833
-36.139
-36.4979
-36.8595
-37.2235
-37.5895
-37.9571
-38.3261
-38.6959
-39.0662
-39.4364
-39.8058
-40.1732
-40.5372
-40.8963
-41.2484
-45.1154
-44.7919
-44.4578
-44.1128
-43.756
-43.3858
-43.0008
-42.5995
-42.1808
-41.744
-41.2893
-40.8176
-40.3306
-39.8304
-39.3196
-38.8011
-38.2778
-37.7528
-37.2292
-36.71
-36.1984
-35.6973
-35.2097
-34.7384
-34.2855
-33.8534
-33.4435
-33.0572
-32.6953
-32.3584
-32.0465
-31.7594
-31.4967
-31.2576
-31.0411
-30.8462
-30.6719
-30.5172
-30.3809
-30.2621
-30.1599
-30.0733
-30.0013
-29.9434
-29.8991
-29.8682
-29.851
-29.8479
-29.8598
-29.8878
-29.9328
-29.9958
-30.0777
-30.179
-30.3002
-30.4412
-30.6018
-30.7816
-30.9798
-31.1953
-31.4272
-31.674
-31.9347
-32.208
-32.4929
-32.7883
-33.0934
-33.4072
-33.7287
-34.0573
-34.3919
-34.7318
-35.0765
-35.4254
-35.7781
-36.1343
-36.4937
-36.8558
-37.2204
-37.5869
-37.955
-38.3244
-38.6949
-39.066
-39.4373
-39.8082
-40.1775
-40.544
-40.9058
-41.2609
-45.1469
-44.8231
-44.4902
-44.1478
-43.7946
-43.4285
-43.0474
-42.649
-42.2317
-41.7944
-41.3372
-40.8611
-40.368
-39.8606
-39.3419
-38.815
-38.2831
-37.7494
-37.217
-36.689
-36.1688
-35.6595
-35.1643
-34.6861
-34.2275
-33.7906
-33.3771
-32.9883
-32.625
-32.2876
-31.9763
-31.6907
-31.43
-31.1935
-30.9798
-30.7879
-30.6166
-30.4647
-30.3313
-30.2153
-30.1157
-30.0314
-29.9613
-29.9047
-29.8607
-29.8292
-29.8104
-29.8051
-29.8144
-29.8395
-29.8818
-29.9426
-30.0228
-30.1232
-30.2441
-30.3857
-30.5477
-30.7296
-30.9304
-31.1491
-31.3843
-31.6345
-31.8984
-32.1748
-32.4625
-32.7606
-33.0683
-33.3846
-33.7086
-34.0395
-34.3761
-34.7178
-35.0639
-35.414
-35.7677
-36.1249
-36.4853
-36.8485
-37.2141
-37.5816
-37.9506
-38.321
-38.6924
-39.065
-39.4385
-39.8123
-40.1856
-40.5569
-40.9244
-41.2857
-45.1917
-44.8673
-44.5365
-44.1985
-43.8516
-43.4929
-43.1188
-42.7259
-42.3114
-41.8736
-41.4124
-40.9291
-40.4263
-39.9074
-39.3762
-38.8363
-38.2913
-37.7443
-37.1985
-36.6571
-36.1237
-35.6017
-35.0947
-34.6061
-34.1386
-33.6945
-33.2756
-32.883
-32.5177
-32.1798
-31.8695
-31.5862
-31.3291
-31.0967
-30.8876
-30.7004
-30.5335
-30.3861
-30.257
-30.1453
-30.0498
-29.9694
-29.9026
-29.848
-29.8047
-29.7722
-29.7509
-29.7418
-29.7465
-29.7668
-29.8047
-29.8617
-29.9392
-30.0381
-30.1586
-30.3011
-30.4652
-30.6504
-30.8556
-31.0793
-31.3199
-31.5755
-31.8444
-32.1254
-32.4173
-32.7193
-33.0308
-33.3509
-33.6788
-34.0132
-34.3531
-34.6974
-35.0455
-35.3971
-35.7521
-36.1107
-36.4726
-36.8375
-37.2047
-37.5738
-37.9441
-38.3155
-38.6881
-39.0624
-39.4386
-39.8167
-40.1959
-40.5749
-40.9513
-41.3225
-45.2466
-44.9208
-44.5929
-44.2621
-43.9258
-43.5794
-43.2173
-42.834
-42.4247
-41.9867
-41.5195
-41.0253
-40.5079
-39.9721
-39.4231
-38.8653
-38.3025
-37.7377
-37.1739
-36.6142
-36.0623
-35.5225
-34.9991
-34.4959
-34.0162
-33.5626
-33.1365
-32.7391
-32.371
-32.0328
-31.7242
-31.4447
-31.1929
-30.9668
-30.7645
-30.5838
-30.4231
-30.2815
-30.1581
-30.0523
-29.9629
-29.8883
-29.8266
-29.7755
-29.7335
-29.6996
-29.6743
-29.6591
-29.6565
-29.6693
-29.7003
-29.7518
-29.8253
-29.9219
-30.042
-30.1857
-30.3528
-30.5427
-30.7543
-30.9855
-31.234
-31.4974
-31.7733
-32.0603
-32.3575
-32.6644
-32.9808
-33.3062
-33.6395
-33.9791
-34.3236
-34.6714
-35.0219
-35.3751
-35.7314
-36.0914
-36.4553
-36.8227
-37.1926
-37.5639
-37.9357
-38.3078
-38.681
-39.0565
-39.4356
-39.8189
-40.2062
-40.5959
-40.9853
-41.3708
-45.3063
-44.9775
-44.6535
-44.3337
-44.0144
-43.6884
-43.3466
-42.9796
-42.5795
-42.1418
-41.6658
-41.1551
-40.616
-40.0561
-39.4829
-38.9018
-38.3168
-37.73
-37.1436
-36.5602
-35.984
-35.4202
-34.8745
-34.3521
-33.8569
-33.3912
-32.9565
-32.5532
-32.1819
-31.8433
-31.5375
-31.2636
-31.0199
-30.8034
-30.6106
-30.4388
-30.2859
-30.1511
-30.0345
-29.936
-29.855
-29.7892
-29.7357
-29.6906
-29.651
-29.6152
-29.5836
-29.5588
-29.5447
-29.5459
-29.5668
-29.6104
-29.6787
-29.7723
-29.8916
-30.0367
-30.2078
-30.4043
-30.6249
-30.8669
-31.127
-31.4012
-31.6865
-31.9808
-32.2837
-32.5959
-32.918
-33.25
-33.5909
-33.9382
-34.2891
-34.6415
-34.9944
-35.3484
-35.7051
-36.0663
-36.4328
-36.8041
-37.1783
-37.5529
-37.9263
-38.2983
-38.6702
-39.0451
-39.4259
-39.815
-40.2126
-40.6169
-41.0243
-41.43
-45.3627
-45.0272
-44.7078
-44.4048
-44.1127
-43.8202
-43.5123
-43.1729
-42.7887
-42.352
-41.8623
-41.326
-40.7541
-40.1597
-39.554
-38.9443
-38.3337
-37.7221
-37.1091
-36.4962
-35.8881
-35.2921
-34.7167
-34.1695
-33.6552
-33.1759
-32.7315
-32.3215
-31.9463
-31.6071
-31.305
-31.0397
-30.8083
-30.606
-30.4271
-30.267
-30.1229
-29.995
-29.8851
-29.7952
-29.7255
-29.6732
-29.633
-29.5983
-29.5634
-29.525
-29.4836
-29.4434
-29.4112
-29.3948
-29.4009
-29.434
-29.4958
-29.5861
-29.7044
-29.8509
-30.0264
-30.2314
-30.4647
-30.7228
-30.9998
-31.2895
-31.5867
-31.889
-32.1968
-32.5131
-32.8408
-33.1813
-33.5331
-33.8919
-34.2525
-34.6107
-34.9652
-35.3176
-35.6722
-36.0333
-36.4033
-36.7811
-37.1629
-37.5434
-37.9188
-38.2883
-38.6548
-39.0245
-39.404
-39.7983
-40.2087
-40.6328
-41.0652
-41.499
-45.4034
-45.0539
-44.7385
-44.4601
-44.2114
-43.9744
-43.7234
-43.4308
-43.0736
-42.6387
-42.1262
-41.5481
-40.925
-40.2797
-39.6309
-38.9884
-38.3524
-37.7166
-37.0747
-36.4255
-35.7749
-35.1347
-34.5189
-33.9397
-33.4035
-32.9106
-32.4573
-32.0402
-31.6592
-31.3178
-31.0201
-30.7673
-30.5552
-30.3753
-30.2172
-30.0724
-29.9372
-29.8135
-29.7075
-29.6258
-29.5713
-29.5401
-29.5228
-29.5069
-29.4814
-29.4397
-29.3824
-29.3169
-29.2554
-29.2116
-29.1967
-29.2168
-29.2722
-29.3598
-29.4769
-29.6235
-29.8027
-30.0179
-30.2693
-30.5515
-30.8545
-31.167
-31.4798
-31.7892
-32.098
-32.4138
-32.7452
-33.0964
-33.4651
-33.8429
-34.2192
-34.5854
-34.9388
-35.2837
-35.6297
-35.9873
-36.3621
-36.7522
-37.149
-37.541
-37.9196
-38.2821
-38.6346
-38.9893
-39.3604
-39.758
-40.1846
-40.636
-41.1036
-41.5768
-45.41
-45.0315
-44.716
-44.4726
-44.2934
-44.1489
-43.9945
-43.7818
-43.4703
-43.0375
-42.4844
-41.8351
-41.1281
-40.405
-39.6987
-39.0234
-38.3709
-37.7201
-37.0512
-36.3571
-35.647
-34.9423
-34.2688
-33.6481
-33.0899
-32.5886
-32.1312
-31.7071
-31.3156
-30.966
-30.6709
-30.4365
-30.2563
-30.1137
-29.9885
-29.8645
-29.7352
-29.6068
-29.4952
-29.4179
-29.384
-29.3877
-29.4109
-29.4299
-29.423
-29.3773
-29.2934
-29.1849
-29.0745
-28.9871
-28.9423
-28.949
-29.0025
-29.0916
-29.2072
-29.3495
-29.5275
-29.7527
-30.0298
-30.3504
-30.6959
-31.0443
-31.378
-31.6905
-31.989
-32.2923
-32.621
-32.9865
-33.3841
-33.7961
-34.2003
-34.5784
-34.9245
-35.2479
-35.5705
-35.9162
-36.2988
-36.7136
-37.1415
-37.5578
-37.9429
-38.2902
-38.6107
-38.9302
-39.2783
-39.6752
-40.1244
-40.6156
-41.1334
-41.6622
-45.3551
-44.9186
-44.5897
-44.3928
-44.3255
-44.3377
-44.3495
-44.275
-44.042
-43.6094
-42.9813
-42.2055
-41.3544
-40.5061
-39.7223
-39.0259
-38.3871
-37.7498
-37.0641
-36.312
-35.5117
-34.7051
-33.9428
-33.2671
-32.6944
-32.2037
-31.7576
-31.3276
-30.9119
-30.5361
-30.2347
-30.028
-29.9037
-29.8273
-29.7585
-29.6647
-29.5325
-29.3763
-29.2339
-29.1478
-29.1428
-29.2075
-29.3055
-29.3905
-29.4208
-29.3704
-29.24
-29.0561
-28.8611
-28.7013
-28.6143
-28.6141
-28.682
-28.7854
-28.8995
-29.0243
-29.1846
-29.4131
-29.7277
-30.1135
-30.5331
-30.9427
-31.3071
-31.6118
-31.8733
-32.1344
-32.4438
-32.8303
-33.2822
-33.7607
-34.2186
-34.6176
-34.9427
-35.2131
-35.4777
-35.7921
-36.1888
-36.6559
-37.1503
-37.6194
-38.0205
-38.3364
-38.5879
-38.8297
-39.1254
-39.517
-40.0031
-40.5564
-41.1469
-41.7536
-45.1989
-44.6507
-44.2733
-44.1265
-44.2433
-44.5272
-44.8292
-44.9964
-44.9014
-44.463
-43.691
-42.6842
-41.577
-40.5147
-39.62
-38.9454
-38.4016
-37.8492
-37.1728
-36.3366
-35.3858
-34.4043
-33.4923
-32.7381
-32.181
-31.7549
-31.3613
-30.9275
-30.4511
-29.9993
-29.6625
-29.5011
-29.4822
-29.5305
-29.5648
-29.5204
-29.3648
-29.1264
-28.8917
-28.7615
-28.8014
-28.9798
-29.2191
-29.4305
-29.535
-29.4792
-29.2638
-28.9437
-28.5971
-28.3111
-28.1617
-28.1811
-28.3108
-28.4641
-28.5765
-28.6481
-28.7436
-28.9496
-29.3233
-29.8282
-30.385
-30.9065
-31.3221
-31.5955
-31.7582
-31.9069
-32.1558
-32.5797
-33.1419
-33.755
-34.3218
-34.7632
-35.0394
-35.1864
-35.3133
-35.5489
-35.9775
-36.5587
-37.1952
-37.7788
-38.2206
-38.4748
-38.5789
-38.6514
-38.8339
-39.2224
-39.7847
-40.4435
-41.1368
-41.8469
-44.8781
-44.1368
-43.6249
-43.4805
-43.9203
-44.6908
-45.5028
-46.0956
-46.2553
-45.7969
-44.7392
-43.3076
-41.7351
-40.2821
-39.2008
-38.6771
-38.4284
-38.1275
-37.512
-36.5264
-35.3043
-34.0039
-32.8147
-31.9257
-31.4792
-31.2596
-31.0232
-30.5892
-29.9552
-29.2975
-28.8379
-28.7697
-28.9643
-29.254
-29.4851
-29.5365
-29.3168
-28.8716
-28.3993
-28.1308
-28.261
-28.6648
-29.1734
-29.6246
-29.8806
-29.8182
-29.4391
-28.8697
-28.2462
-27.7248
-27.4662
-27.5896
-27.906
-28.2018
-28.3124
-28.2381
-28.1437
-28.245
-28.7303
-29.4683
-30.2876
-31.0231
-31.5419
-31.7389
-31.6635
-31.5349
-31.6159
-32.1298
-32.9284
-33.816
-34.6054
-35.1466
-35.3222
-35.1883
-34.9921
-35.0279
-35.546
-36.3816
-37.3162
-38.1419
-38.6905
-38.8291
-38.6149
-38.3143
-38.2453
-38.6771
-39.4268
-40.2804
-41.1023
-41.9201
-44.257
-43.2925
-42.4467
-41.9932
-43.121
-44.7943
-46.4923
-47.8188
-48.4991
-47.9941
-46.3257
-44.1342
-41.7212
-39.5145
-37.9788
-38.0129
-38.5309
-38.859
-38.3844
-37.057
-35.3359
-33.444
-31.7051
-30.4765
-30.4513
-30.7888
-30.97
-30.5392
-29.4941
-28.3107
-27.4506
-27.66
-28.3103
-29.0624
-29.6648
-29.9438
-29.5939
-28.6566
-27.6144
-26.9264
-27.3276
-28.1993
-29.2111
-30.1006
-30.6852
-30.614
-29.8892
-28.8745
-27.7486
-26.7609
-26.2214
-26.7206
-27.5315
-28.2068
-28.3151
-27.8576
-27.2623
-26.9879
-27.7738
-28.9918
-30.3113
-31.452
-32.2254
-32.2746
-31.6455
-30.8615
-30.4529
-31.2701
-32.5868
-34.0183
-35.2463
-36.0564
-36.0506
-35.28
-34.3364
-33.8121
-34.6572
-36.0614
-37.5939
-38.9034
-39.7505
-39.6911
-38.7746
-37.6432
-36.9349
-37.6736
-38.9189
-40.1624
-41.0732
-41.8579
-42.8173
-42.2772
-40.704
-38.229
-41.5362
-44.8627
-48.0166
-50.4724
-52.4501
-51.8668
-48.6658
-45.2796
-41.4105
-37.7808
-34.4965
-36.6522
-38.9068
-40.7469
-40.4849
-38.1551
-35.6135
-32.6639
-29.8609
-27.2948
-28.9012
-30.5435
-31.7984
-31.3741
-29.2326
-26.8586
-24.5232
-25.916
-27.5099
-29.0868
-30.3106
-31.2572
-30.7175
-28.5929
-26.3196
-24.1539
-25.7168
-27.5328
-29.4252
-31.0159
-32.435
-32.3512
-30.7571
-29.0398
-27.0525
-25.1519
-23.4809
-25.403
-27.3525
-29.0285
-29.1327
-27.6757
-25.919
-24.2042
-26.1953
-28.3692
-30.5926
-32.41
-33.9517
-33.7873
-31.8507
-29.6473
-27.5248
-29.6908
-32.0801
-34.5137
-36.4888
-38.141
-37.8799
-35.6207
-33.0769
-30.6242
-32.9631
-35.5562
-38.1923
-40.3304
-42.1154
-41.787
-39.2437
-36.3625
-33.5405
-35.9403
-38.4131
-40.5228
-41.2252
-41.0694
-37.7034
-42.7498
-40.2597
-26.1383
-39.9236
-45.1796
-50.5463
-53.8147
-60.0889
-59.5091
-51.2726
-47.1207
-40.7552
-35.5499
-23.1808
-35.1493
-39.8799
-45.6622
-45.5632
-39.5586
-36.4789
-31.6731
-27.6756
-18.1053
-27.2997
-30.8565
-35.0453
-34.6824
-29.3062
-25.3515
-16.2279
-23.8826
-26.7348
-29.62
-31.3563
-34.7115
-34.1238
-28.7438
-24.8705
-16.0129
-23.7423
-26.7566
-30.0745
-32.179
-36.3495
-36.2641
-31.8029
-29.5948
-26.2319
-23.2127
-15.567
-24.0464
-27.5679
-32.1143
-32.1989
-27.9258
-24.5157
-16.0844
-24.354
-27.6755
-31.4591
-33.765
-38.1353
-37.8522
-32.4403
-28.3168
-18.4215
-27.79
-31.5094
-35.6695
-38.196
-42.9809
-42.5862
-36.3712
-31.686
-20.536
-30.9025
-34.9889
-39.5075
-42.2654
-47.5232
-47.0718
-40.1987
-34.9961
-22.6261
-34.1016
-38.4294
-42.9089
-42.6119
-36.4322
-41.6247
-42.02
-42.3953
-42.7474
-43.0736
-43.3718
-43.6404
-43.8788
-44.0864
-44.2634
-44.41
-44.5265
-44.6134
-44.6711
-44.6999
-41.6406
-42.0395
-42.418
-42.7729
-43.1011
-43.4007
-43.6702
-43.9089
-44.1165
-44.2933
-44.4394
-44.5555
-44.6421
-44.6995
-44.7281
-41.6724
-42.0787
-42.4639
-42.8243
-43.1567
-43.4591
-43.7302
-43.9695
-44.177
-44.3531
-44.4984
-44.6135
-44.6992
-44.756
-44.7843
-41.7204
-42.1385
-42.5342
-42.903
-43.2417
-43.5482
-43.8215
-44.0614
-44.2683
-44.4432
-44.5869
-44.7004
-44.7847
-44.8405
-44.8683
-41.7851
-42.2201
-42.6306
-43.0112
-43.3583
-43.67
-43.9455
-44.1856
-44.3912
-44.5638
-44.7049
-44.816
-44.8982
-44.9525
-44.9794
-41.8671
-42.3258
-42.7564
-43.1525
-43.5099
-43.8271
-44.1045
-44.3436
-44.5464
-44.7153
-44.8524
-44.9598
-45.039
-45.0911
-45.1169
-41.968
-42.4589
-42.9163
-43.3317
-43.701
-44.0236
-44.3013
-44.5372
-44.7349
-44.8979
-45.0292
-45.1313
-45.2062
-45.2554
-45.2797
-42.09
-42.6252
-43.1176
-43.5565
-43.9383
-44.2643
-44.5392
-44.7684
-44.9576
-45.1116
-45.2344
-45.3293
-45.3985
-45.4438
-45.4662
-42.2376
-42.8338
-43.3718
-43.8381
-44.2308
-44.5558
-44.8221
-45.0391
-45.2148
-45.3557
-45.467
-45.5523
-45.6142
-45.6546
-45.6746
-42.418
-43.1001
-43.6973
-44.1929
-44.5908
-44.9056
-45.154
-45.3504
-45.506
-45.6289
-45.7249
-45.798
-45.8508
-45.8852
-45.9022
-42.6426
-43.4511
-44.124
-44.6447
-45.0338
-45.3219
-45.5377
-45.7022
-45.8293
-45.9283
-46.005
-46.0632
-46.1053
-46.1326
-46.1461
-42.9267
-43.9371
-44.702
-45.2273
-45.5766
-45.8105
-45.9729
-46.091
-46.1803
-46.2493
-46.303
-46.3439
-46.3737
-46.3932
-46.4029
-43.2923
-44.6675
-45.5189
-45.9843
-46.2329
-46.3698
-46.4523
-46.5086
-46.5511
-46.5852
-46.6129
-46.6351
-46.6518
-46.663
-46.6687
-43.8291
-45.9213
-46.7229
-46.9585
-46.9988
-46.9825
-46.958
-46.9398
-46.9299
-46.9267
-46.9277
-46.9309
-46.9346
-46.9377
-46.9394
-45.2934
-48.4639
-48.4919
-48.1283
-47.8194
-47.6024
-47.4573
-47.3626
-47.3018
-47.2634
-47.2397
-47.2255
-47.2174
-47.213
-47.2111
-50.9443
-50.9515
-50.9666
-50.991
-51.0269
-51.0783
-51.1509
-51.2541
-51.4034
-51.6267
-51.9789
-52.586
-53.7989
-56.8335
-66.8243
-51.1588
-51.1688
-51.1897
-51.2232
-51.2721
-51.341
-51.4371
-51.5718
-51.7642
-52.0474
-52.4843
-53.2043
-54.4944
-57.0122
-62.0463
-51.3661
-51.3784
-51.4039
-51.4445
-51.5031
-51.5846
-51.6963
-51.8495
-52.0618
-52.3612
-52.793
-53.4261
-54.3373
-55.4435
-55.564
-51.5646
-51.5786
-51.6075
-51.653
-51.7181
-51.8072
-51.9267
-52.0862
-52.2988
-52.5829
-52.9616
-53.4546
-54.0448
-54.5592
-54.3695
-51.7532
-51.7684
-51.7994
-51.8478
-51.9163
-52.0085
-52.1294
-52.2858
-52.486
-52.7389
-53.0504
-53.4156
-53.8046
-54.1637
-54.6247
-51.9312
-51.9469
-51.9789
-52.0285
-52.0979
-52.1896
-52.3073
-52.4551
-52.6367
-52.8538
-53.1014
-53.3599
-53.5851
-53.697
-53.6233
-52.098
-52.1138
-52.146
-52.1954
-52.2636
-52.3526
-52.4643
-52.6009
-52.7628
-52.9474
-53.144
-53.3275
-53.4443
-53.3589
-52.5731
-52.2536
-52.2692
-52.3008
-52.349
-52.4149
-52.4995
-52.6041
-52.729
-52.8732
-53.0322
-53.1951
-53.3414
-53.4439
-53.5069
-53.9212
-52.3982
-52.4133
-52.4438
-52.4901
-52.5528
-52.6325
-52.7296
-52.8438
-52.9734
-53.1141
-53.2568
-53.3856
-53.4709
-53.4107
-52.6183
-52.532
-52.5465
-52.5756
-52.6196
-52.6787
-52.7533
-52.8432
-52.948
-53.066
-53.1942
-53.3274
-53.4601
-53.599
-53.8226
-54.7075
-52.6556
-52.6693
-52.6969
-52.7383
-52.7937
-52.8632
-52.9464
-53.0429
-53.1516
-53.2707
-53.3976
-53.5303
-53.6681
-53.7749
-53.4744
-52.7694
-52.7823
-52.8082
-52.847
-52.8988
-52.9633
-53.0404
-53.1295
-53.2301
-53.3413
-53.4628
-53.5969
-53.7587
-54.0096
-54.7199
-52.8739
-52.886
-52.9102
-52.9465
-52.9947
-53.0545
-53.1258
-53.2082
-53.3012
-53.4045
-53.5183
-53.6443
-53.7874
-53.9249
-53.7776
-52.9697
-52.9811
-53.0037
-53.0374
-53.0822
-53.1377
-53.2036
-53.2795
-53.3652
-53.4602
-53.5644
-53.6798
-53.8198
-54.0376
-54.6181
-53.0574
-53.068
-53.0891
-53.1205
-53.162
-53.2134
-53.2743
-53.3442
-53.4228
-53.5091
-53.6016
-53.6982
-53.7983
-53.8979
-53.9833
-53.1375
-53.1474
-53.167
-53.1962
-53.2347
-53.2823
-53.3385
-53.403
-53.475
-53.5533
-53.635
-53.7141
-53.7772
-53.7675
-53.4113
-53.2105
-53.2197
-53.2379
-53.265
-53.3008
-53.345
-53.397
-53.4566
-53.523
-53.5948
-53.6692
-53.7411
-53.8065
-53.8772
-54.1559
-53.2768
-53.2854
-53.3024
-53.3276
-53.3609
-53.4019
-53.4502
-53.5055
-53.5672
-53.6342
-53.7041
-53.7726
-53.8323
-53.8419
-53.5373
-53.3369
-53.3449
-53.3607
-53.3843
-53.4153
-53.4535
-53.4986
-53.5501
-53.6078
-53.6711
-53.7388
-53.8101
-53.8928
-54.0242
-54.4544
-53.3911
-53.3986
-53.4134
-53.4355
-53.4644
-53.5001
-53.5422
-53.5905
-53.6447
-53.7047
-53.7697
-53.8399
-53.9193
-53.9987
-53.9308
-53.4399
-53.4469
-53.4608
-53.4814
-53.5086
-53.5421
-53.5815
-53.6268
-53.6778
-53.7342
-53.7958
-53.8631
-53.9458
-54.0748
-54.4072
-53.4834
-53.49
-53.5031
-53.5225
-53.5481
-53.5796
-53.6167
-53.6593
-53.7071
-53.7599
-53.8165
-53.8758
-53.94
-54.0092
-54.0755
-53.5221
-53.5283
-53.5407
-53.559
-53.5832
-53.6129
-53.648
-53.6881
-53.7331
-53.7824
-53.8342
-53.8851
-53.9308
-53.9449
-53.7941
-53.556
-53.5619
-53.5737
-53.5911
-53.6141
-53.6423
-53.6756
-53.7137
-53.7563
-53.8028
-53.851
-53.8979
-53.9434
-53.9946
-54.148
-53.5855
-53.5912
-53.6024
-53.6191
-53.641
-53.6679
-53.6997
-53.7362
-53.777
-53.8214
-53.8675
-53.9118
-53.9521
-53.9726
-53.8772
-53.6107
-53.6161
-53.6269
-53.6429
-53.664
-53.6899
-53.7206
-53.7557
-53.7952
-53.8385
-53.8837
-53.9285
-53.9745
-54.0304
-54.1789
-53.6318
-53.637
-53.6474
-53.6629
-53.6833
-53.7084
-53.7381
-53.7723
-53.811
-53.8537
-53.8989
-53.9444
-53.99
-54.0232
-53.9543
-53.6488
-53.6539
-53.664
-53.6791
-53.6989
-53.7234
-53.7524
-53.786
-53.8241
-53.8666
-53.9124
-53.9601
-54.014
-54.0863
-54.2543
-53.6619
-53.6669
-53.6768
-53.6915
-53.7109
-53.7349
-53.7634
-53.7966
-53.8344
-53.8769
-53.9229
-53.9715
-54.0252
-54.0823
-54.1082
-53.6712
-53.6761
-53.6858
-53.7003
-53.7193
-53.743
-53.7712
-53.804
-53.8416
-53.884
-53.9303
-53.9792
-54.0342
-54.0992
-54.1963
-53.6767
-53.6815
-53.6911
-53.7054
-53.7242
-53.7476
-53.7756
-53.8082
-53.8456
-53.888
-53.9342
-53.9828
-54.0361
-54.0931
-54.1456
-53.6784
-53.6832
-53.6927
-53.7068
-53.7256
-53.7488
-53.7766
-53.8091
-53.8464
-53.8887
-53.9348
-53.9831
-54.0354
-54.0894
-54.1366
-53.6764
-53.6811
-53.6906
-53.7047
-53.7234
-53.7465
-53.7743
-53.8067
-53.844
-53.8862
-53.9323
-53.9806
-54.0336
-54.0897
-54.1366
-53.6706
-53.6754
-53.6848
-53.6989
-53.7176
-53.7408
-53.7685
-53.8009
-53.8383
-53.8805
-53.9265
-53.9749
-54.0295
-54.0956
-54.2036
-53.6611
-53.6659
-53.6754
-53.6896
-53.7083
-53.7316
-53.7594
-53.792
-53.8294
-53.8716
-53.9173
-53.965
-54.0174
-54.0715
-54.0857
-53.6479
-53.6527
-53.6623
-53.6765
-53.6954
-53.7188
-53.7469
-53.7797
-53.8173
-53.8596
-53.905
-53.9518
-54.004
-54.0745
-54.2486
-53.6309
-53.6358
-53.6454
-53.6598
-53.6789
-53.7026
-53.731
-53.7642
-53.8022
-53.8448
-53.89
-53.9348
-53.978
-54.0047
-53.9178
-53.6101
-53.615
-53.6248
-53.6394
-53.6587
-53.6828
-53.7116
-53.7454
-53.7842
-53.8276
-53.8736
-53.9188
-53.9635
-54.013
-54.1527
-53.5854
-53.5904
-53.6003
-53.6151
-53.6348
-53.6593
-53.6887
-53.7232
-53.7631
-53.8079
-53.8559
-53.9031
-53.9456
-53.9577
-53.8156
-53.5568
-53.5618
-53.5719
-53.587
-53.607
-53.632
-53.6621
-53.6975
-53.7387
-53.7856
-53.8369
-53.8907
-53.9487
-54.0087
-54.0605
-53.5242
-53.5293
-53.5396
-53.5549
-53.5754
-53.6009
-53.6316
-53.668
-53.7105
-53.7594
-53.8144
-53.8753
-53.9506
-54.0644
-54.3475
-53.4875
-53.4927
-53.5032
-53.5189
-53.5397
-53.5657
-53.5972
-53.6344
-53.6779
-53.7285
-53.7858
-53.8499
-53.9257
-54.0017
-53.9406
-53.4467
-53.452
-53.4627
-53.4787
-53.4999
-53.5265
-53.5585
-53.5964
-53.6408
-53.6922
-53.7504
-53.8164
-53.9007
-54.0334
-54.394
-53.4017
-53.4072
-53.418
-53.4343
-53.456
-53.483
-53.5157
-53.5542
-53.599
-53.6504
-53.7078
-53.7703
-53.8419
-53.9058
-53.7717
-53.3524
-53.358
-53.3691
-53.3857
-53.4078
-53.4354
-53.4686
-53.5077
-53.5528
-53.6039
-53.6594
-53.718
-53.7886
-53.9147
-54.3949
-53.2987
-53.3044
-53.3158
-53.3327
-53.3553
-53.3834
-53.4173
-53.4571
-53.5027
-53.5536
-53.607
-53.6572
-53.6967
-53.6769
-53.2872
-53.2406
-53.2464
-53.258
-53.2753
-53.2983
-53.3272
-53.3618
-53.4025
-53.4492
-53.501
-53.5547
-53.604
-53.646
-53.695
-53.9862
-53.178
-53.1839
-53.1957
-53.2134
-53.2369
-53.2664
-53.302
-53.3439
-53.3923
-53.4465
-53.5034
-53.5558
-53.5904
-53.5439
-53.1084
-53.1107
-53.1167
-53.1288
-53.1468
-53.1709
-53.2011
-53.2376
-53.281
-53.3315
-53.3894
-53.4531
-53.5199
-53.591
-53.6621
-53.7202
-53.0387
-53.0448
-53.0571
-53.0755
-53.1
-53.1309
-53.1684
-53.2131
-53.2659
-53.3276
-53.3986
-53.4811
-53.5917
-53.7883
-54.379
-52.9619
-52.9682
-52.9806
-52.9993
-53.0243
-53.0558
-53.0941
-53.1399
-53.1942
-53.2585
-53.3339
-53.4227
-53.5328
-53.6399
-53.4462
-52.8803
-52.8866
-52.8992
-52.9182
-52.9436
-52.9755
-53.0143
-53.0608
-53.116
-53.1811
-53.2577
-53.3496
-53.4759
-53.6995
-54.394
-52.7937
-52.8001
-52.8129
-52.8321
-52.8577
-52.89
-52.9292
-52.9759
-53.0309
-53.0951
-53.1687
-53.2525
-53.3515
-53.4311
-53.1078
-52.7022
-52.7086
-52.7215
-52.7409
-52.7667
-52.7992
-52.8386
-52.8853
-52.9398
-53.0019
-53.0705
-53.1448
-53.2405
-53.4416
-54.3271
-52.6056
-52.6121
-52.6251
-52.6446
-52.6706
-52.7033
-52.7429
-52.7896
-52.8434
-52.9035
-52.966
-53.0223
-53.0563
-52.9757
-52.1893
-52.504
-52.5105
-52.5235
-52.5431
-52.5693
-52.6022
-52.642
-52.689
-52.743
-52.8028
-52.8634
-52.9154
-52.9517
-52.999
-53.4912
-52.3973
-52.4038
-52.4169
-52.4365
-52.4628
-52.4958
-52.536
-52.5837
-52.6389
-52.7007
-52.7646
-52.8194
-52.8394
-52.7123
-51.8869
-52.2855
-52.292
-52.305
-52.3246
-52.3509
-52.3842
-52.4247
-52.4732
-52.5304
-52.5965
-52.6699
-52.7474
-52.8294
-52.9095
-52.9717
-52.1686
-52.1751
-52.188
-52.2075
-52.2337
-52.267
-52.3077
-52.357
-52.416
-52.4864
-52.5701
-52.6724
-52.8208
-53.118
-54.1067
-52.0467
-52.0531
-52.0659
-52.0852
-52.1111
-52.1441
-52.1847
-52.234
-52.2938
-52.3665
-52.4551
-52.5653
-52.7089
-52.8451
-52.4663
-51.9198
-51.926
-51.9386
-51.9576
-51.9831
-52.0155
-52.0555
-52.104
-52.1629
-52.2347
-52.3227
-52.435
-52.6021
-52.9288
-54.0394
-51.7879
-51.794
-51.8063
-51.8248
-51.8497
-51.8813
-51.9201
-51.967
-52.0234
-52.0909
-52.171
-52.2667
-52.3846
-52.467
-51.8828
-51.6512
-51.6571
-51.6691
-51.687
-51.7111
-51.7416
-51.7789
-51.8236
-51.8763
-51.9375
-52.0062
-52.0831
-52.1918
-52.467
-53.8361
-51.5098
-51.5155
-51.527
-51.5443
-51.5675
-51.5968
-51.6324
-51.6747
-51.7237
-51.7782
-51.8333
-51.8773
-51.8835
-51.7061
-50.4089
-51.3638
-51.3693
-51.3803
-51.3969
-51.4191
-51.4471
-51.4811
-51.5213
-51.5675
-51.6178
-51.6656
-51.6978
-51.7026
-51.7219
-52.4268
-51.2134
-51.2187
-51.2292
-51.2449
-51.2661
-51.2928
-51.3253
-51.364
-51.4088
-51.4583
-51.5064
-51.5374
-51.5117
-51.2605
-49.9522
-51.0588
-51.0638
-51.0737
-51.0886
-51.1086
-51.134
-51.165
-51.2025
-51.2471
-51.2991
-51.3568
-51.4163
-51.4774
-51.5321
-51.5659
-50.9002
-50.9049
-50.9142
-50.9282
-50.9469
-50.9708
-51.0002
-51.0362
-51.0804
-51.1351
-51.2034
-51.2942
-51.4474
-51.817
-53.2106
-50.7377
-50.7421
-50.7507
-50.7637
-50.7812
-50.8032
-50.8306
-50.8644
-50.9067
-50.961
-51.0319
-51.1287
-51.2674
-51.3896
-50.7645
-50.5717
-50.5757
-50.5837
-50.5956
-50.6115
-50.6316
-50.6564
-50.6868
-50.7251
-50.7744
-50.8401
-50.9343
-51.0986
-51.4802
-52.9579
-50.4022
-50.4059
-50.4133
-50.4241
-50.4385
-50.4563
-50.478
-50.5041
-50.536
-50.5757
-50.6259
-50.6912
-50.7792
-50.8083
-49.9057
-50.2296
-50.233
-50.2397
-50.2496
-50.2624
-50.278
-50.2963
-50.3174
-50.3417
-50.3691
-50.3987
-50.4323
-50.5006
-50.7823
-52.5135
-50.0541
-50.0572
-50.0634
-50.0723
-50.0838
-50.0973
-50.1125
-50.1288
-50.1455
-50.1601
-50.1663
-50.1494
-50.0738
-49.7485
-47.9437
-49.8757
-49.8787
-49.8845
-49.8928
-49.9031
-49.915
-49.9276
-49.9402
-49.951
-49.9563
-49.9473
-49.9072
-49.8206
-49.741
-50.5157
-49.6947
-49.6976
-49.7032
-49.7111
-49.7208
-49.7316
-49.7427
-49.7529
-49.7605
-49.7617
-49.7474
-49.6974
-49.5625
-49.1389
-47.417
-49.5112
-49.5141
-49.5197
-49.5276
-49.5372
-49.5477
-49.5583
-49.5677
-49.5747
-49.577
-49.5699
-49.5467
-49.5049
-49.4375
-49.3463
-49.325
-49.328
-49.3339
-49.3423
-49.3523
-49.3634
-49.3744
-49.3844
-49.3925
-49.3981
-49.4012
-49.4088
-49.465
-49.7514
-51.2198
-49.1361
-49.1394
-49.1459
-49.1551
-49.1662
-49.1786
-49.191
-49.2025
-49.2123
-49.2201
-49.2267
-49.2374
-49.2652
-49.2433
-48.3624
-48.9442
-48.948
-48.9553
-48.9658
-48.9787
-48.9932
-49.0081
-49.0221
-49.0337
-49.0421
-49.0468
-49.0542
-49.1
-49.3305
-50.6592
-48.7492
-48.7535
-48.762
-48.7742
-48.7896
-48.8072
-48.8257
-48.8434
-48.8578
-48.8658
-48.8627
-48.8443
-48.8065
-48.654
-47.511
-48.5506
-48.5556
-48.5654
-48.5798
-48.5983
-48.6201
-48.6438
-48.6671
-48.6866
-48.6964
-48.6868
-48.6478
-48.5927
-48.6642
-49.9517
-48.348
-48.3537
-48.365
-48.382
-48.4042
-48.4312
-48.4618
-48.4937
-48.5225
-48.5396
-48.5289
-48.4625
-48.291
-47.8288
-46.0176
-48.1408
-48.1472
-48.1602
-48.1798
-48.2062
-48.2394
-48.2788
-48.3227
-48.3667
-48.4014
-48.4071
-48.3504
-48.1913
-47.929
-48.1095
-47.9286
-47.9356
-47.95
-47.9722
-48.0029
-48.0429
-48.0926
-48.1518
-48.2178
-48.2825
-48.3261
-48.3094
-48.1633
-47.7206
-46.3809
-47.7109
-47.7184
-47.7339
-47.7582
-47.7927
-47.8391
-47.8996
-47.9763
-48.07
-48.1774
-48.2844
-48.3585
-48.3411
-48.1341
-47.6826
-47.4874
-47.4951
-47.511
-47.5365
-47.5735
-47.6251
-47.6953
-47.7893
-47.9131
-48.0717
-48.2633
-48.4709
-48.6508
-48.7162
-48.6782
-47.258
-47.2654
-47.2809
-47.3062
-47.3438
-47.3978
-47.4742
-47.5816
-47.7323
-47.9422
-48.2287
-48.6027
-49.0401
-49.3689
-49.1099
-47.0229
-47.0295
-47.0435
-47.0666
-47.102
-47.1545
-47.2314
-47.3442
-47.5107
-47.7587
-48.1309
-48.6905
-49.5048
-50.4287
-49.9137
-46.7827
-46.7879
-46.7991
-46.818
-46.848
-46.8938
-46.9635
-47.0695
-47.2326
-47.4881
-47.9005
-48.6015
-49.8935
-52.4867
-58.0261
-46.5384
-46.5416
-46.5487
-46.5613
-46.5823
-46.6162
-46.6702
-46.7554
-46.8906
-47.1078
-47.4672
-48.1023
-49.3788
-52.4977
-62.3333
-63.6806
-53.6742
-50.4724
-49.1505
-48.4851
-48.1036
-47.8688
-47.719
-47.6218
-47.5581
-47.5164
-47.4894
-47.4724
-47.4624
-47.4578
-59.6774
-53.6844
-50.9678
-49.6239
-48.8912
-48.4567
-48.1838
-48.0067
-47.8892
-47.8104
-47.7573
-47.7218
-47.6987
-47.6849
-47.6784
-50.5879
-51.4181
-50.5103
-49.6727
-49.0885
-48.6965
-48.4325
-48.253
-48.1297
-48.0444
-47.9854
-47.9449
-47.9181
-47.9017
-47.894
-50.1833
-50.3575
-50.0046
-49.5452
-49.1503
-48.8466
-48.6226
-48.4604
-48.3437
-48.2599
-48.2001
-48.1581
-48.1297
-48.1121
-48.1037
-49.6644
-49.662
-49.5733
-49.3728
-49.1468
-48.9405
-48.77
-48.6364
-48.5346
-48.4583
-48.4019
-48.3612
-48.3331
-48.3155
-48.307
-48.4786
-49.0252
-49.22
-49.2179
-49.1276
-49.0085
-48.8918
-48.7905
-48.7077
-48.6425
-48.5923
-48.5551
-48.5288
-48.512
-48.5039
-47.5955
-48.6316
-49.0038
-49.1241
-49.1265
-49.074
-49.0029
-48.9319
-48.8686
-48.8157
-48.7733
-48.7408
-48.7172
-48.702
-48.6945
-48.6883
-48.698
-48.9628
-49.1119
-49.1613
-49.1516
-49.1142
-49.0679
-49.0222
-48.9813
-48.9469
-48.9196
-48.8994
-48.886
-48.8794
-47.0928
-48.5862
-49.0026
-49.1686
-49.2352
-49.2476
-49.2318
-49.2038
-49.1723