/*--------------------------------*- C++ -*----------------------------------*\
| =========                 |                                                 |
| \\      /  F ield         | OpenFOAM: The Open Source CFD Toolbox           |
|  \\    /   O peration     | Version:  5.x                                   |
|   \\  /    A nd           | Web:      www.OpenFOAM.org                      |
|    \\/     M anipulation  |                                                 |
\*---------------------------------------------------------------------------*/
FoamFile
{
    version     2.0;
    format      ascii;
    class       volScalarField;
    location    "1.3";
    object      gradTx;
}
// * * * * * * * * * * * * * * * * * * * * * * * * * * * * * * * * * * * * * //

dimensions      [0 -1 0 1 0 0 0];

internalField   nonuniform List<scalar> 
6300
(
-54.0117
-53.9625
-53.8639
-53.7156
-53.5171
-53.268
-52.9679
-52.6166
-52.2142
-51.7612
-51.2589
-50.7089
-50.1137
-49.476
-48.7989
-54.0601
-54.011
-53.9128
-53.7649
-53.5669
-53.3182
-53.0183
-52.6669
-52.2639
-51.8099
-51.3058
-50.7536
-50.1555
-49.5148
-48.8347
-54.1567
-54.108
-54.0105
-53.8636
-53.6666
-53.4189
-53.1195
-52.768
-52.3641
-51.9078
-51.4003
-50.8432
-50.2394
-49.5924
-48.9061
-54.301
-54.253
-54.1567
-54.0114
-53.8163
-53.5702
-53.2721
-52.9208
-52.5156
-52.0563
-51.5435
-50.979
-50.3658
-49.7084
-49.012
-54.4926
-54.4456
-54.3511
-54.2083
-54.0161
-53.7729
-53.477
-53.1268
-52.7206
-52.2576
-51.7377
-51.1627
-50.5359
-49.8629
-49.1508
-54.7303
-54.6847
-54.5928
-54.4538
-54.266
-54.0274
-53.7355
-53.3878
-52.9816
-52.5148
-51.9865
-51.3975
-50.7516
-50.0558
-49.3202
-55.0128
-54.9691
-54.881
-54.7472
-54.5659
-54.3342
-54.0491
-53.7065
-53.3024
-52.8329
-52.2951
-51.6885
-51.0165
-50.2878
-49.517
-55.3381
-55.2969
-55.2139
-55.0874
-54.9151
-54.6938
-54.4192
-54.0859
-53.6879
-53.2185
-52.6718
-52.0442
-51.3374
-50.5615
-49.737
-55.7037
-55.6658
-55.5893
-55.4724
-55.3125
-55.1058
-54.847
-54.5293
-54.144
-53.6807
-53.1286
-52.4784
-51.7267
-50.883
-49.9756
-56.1062
-56.0725
-56.0041
-55.8995
-55.7558
-55.5689
-55.333
-55.0395
-54.6772
-54.2311
-53.6829
-53.0133
-52.2075
-51.2678
-50.2298
-56.5416
-56.5127
-56.4543
-56.3647
-56.2414
-56.0803
-55.8755
-55.6177
-55.2934
-54.8827
-54.3581
-53.6837
-52.8215
-51.7501
-50.5036
-57.0048
-56.9816
-56.9346
-56.8626
-56.7637
-56.6346
-56.4701
-56.2616
-55.995
-55.6476
-55.1821
-54.541
-53.6439
-52.4068
-50.8212
-57.4903
-57.4732
-57.4388
-57.3865
-57.3153
-57.2235
-57.1079
-56.9626
-56.7768
-56.5297
-56.181
-55.6536
-54.8053
-53.4108
-51.2629
-57.9918
-57.9811
-57.9598
-57.9282
-57.8865
-57.8352
-57.7744
-57.7034
-57.6191
-57.5124
-57.3577
-57.0858
-56.5117
-55.1675
-52.1054
-58.5029
-58.4985
-58.4901
-58.4788
-58.4664
-58.4556
-58.4503
-58.4565
-58.4829
-58.542
-58.6504
-58.8189
-58.987
-58.6413
-54.6487
-48.1474
-47.529
-46.888
-46.2251
-45.5409
-44.8352
-44.108
-43.3592
-42.5892
-41.7986
-40.9887
-40.1615
-39.3194
-38.4654
-37.6028
-36.7354
-35.8667
-35.0006
-34.1407
-33.2909
-32.4547
-31.6355
-30.8368
-30.0616
-29.3128
-28.5928
-27.9039
-27.2479
-26.6262
-26.04
-25.4903
-24.9775
-24.502
-24.064
-23.6634
-23.3001
-22.974
-22.6848
-22.4322
-22.2159
-22.0358
-21.8916
-21.783
-21.7099
-21.6723
-21.6703
-21.704
-21.7738
-21.8802
-22.0236
-22.2047
-22.4236
-22.6809
-22.9765
-23.3104
-23.6823
-24.0918
-24.538
-25.0201
-25.5368
-26.0868
-26.6688
-27.281
-27.922
-28.5899
-29.2831
-29.9998
-30.7379
-31.4957
-32.2709
-33.0616
-33.8656
-34.681
-35.5056
-36.3374
-37.1745
-38.0147
-38.8561
-39.6966
-40.5341
-41.3668
-42.1927
-43.0101
-43.8172
-44.612
-45.3927
-46.1568
-46.902
-47.6256
-48.3247
-48.1809
-47.5609
-46.9189
-46.2556
-45.5713
-44.8658
-44.1387
-43.3896
-42.6186
-41.8263
-41.0137
-40.1829
-39.3365
-38.4777
-37.61
-36.7373
-35.8632
-34.9918
-34.1267
-33.2716
-32.4304
-31.6065
-30.8034
-30.0241
-29.2717
-28.5487
-27.8572
-27.199
-26.5757
-25.9883
-25.4377
-24.9244
-24.4488
-24.0108
-23.6104
-23.2475
-22.9217
-22.6328
-22.3806
-22.1648
-21.9851
-21.8411
-21.7328
-21.6598
-21.622
-21.6197
-21.6529
-21.722
-21.8277
-21.9705
-22.1509
-22.3694
-22.6265
-22.9222
-23.2565
-23.6291
-24.0396
-24.4872
-24.9709
-25.4895
-26.0416
-26.6258
-27.2404
-27.8837
-28.5541
-29.2499
-29.9693
-30.7102
-31.4708
-32.249
-33.0427
-33.8496
-34.6679
-35.4953
-36.3301
-37.17
-38.0131
-38.8574
-39.7007
-40.5409
-41.3762
-42.2047
-43.0247
-43.8344
-44.6321
-45.4159
-46.1835
-46.9326
-47.6602
-48.3634
-48.2474
-47.6241
-46.98
-46.316
-45.6319
-44.9272
-44.2007
-43.4514
-42.6787
-41.8828
-41.0648
-40.2267
-39.3715
-38.5029
-37.6247
-36.7412
-35.8563
-34.974
-34.0983
-33.2328
-32.3815
-31.548
-30.7359
-29.9485
-29.1889
-28.4597
-27.763
-27.1006
-26.474
-25.8843
-25.3321
-24.818
-24.3421
-23.9043
-23.5044
-23.1421
-22.8171
-22.529
-22.2776
-22.0625
-21.8836
-21.7404
-21.6325
-21.5597
-21.5218
-21.5187
-21.5508
-21.6186
-21.7227
-21.8639
-22.043
-22.2607
-22.5173
-22.8131
-23.1481
-23.5222
-23.9348
-24.3852
-24.8722
-25.3947
-25.951
-26.5397
-27.1589
-27.807
-28.4824
-29.1834
-29.9081
-30.6547
-31.4211
-32.2053
-33.0049
-33.8177
-34.6417
-35.4749
-36.3153
-37.161
-38.0099
-38.86
-39.709
-40.5548
-41.3953
-42.2288
-43.0536
-43.8685
-44.6718
-45.4618
-46.2366
-46.9934
-47.7293
-48.441
-48.3451
-47.7165
-47.0694
-46.4048
-45.722
-45.0195
-44.2951
-43.5466
-42.7721
-41.9711
-41.1447
-40.2951
-39.4259
-38.5418
-37.6473
-36.7471
-35.8458
-34.9472
-34.0554
-33.1741
-32.3073
-31.4591
-30.6332
-29.8335
-29.0629
-28.3244
-27.6199
-26.9513
-26.3199
-25.7268
-25.1724
-24.6573
-24.1812
-23.744
-23.3451
-22.9839
-22.66
-22.3732
-22.123
-21.9092
-21.7316
-21.5896
-21.4827
-21.4104
-21.3722
-21.3681
-21.3984
-21.4638
-21.5652
-21.7038
-21.8807
-22.0967
-22.3524
-22.6484
-22.9845
-23.3607
-23.7765
-24.2311
-24.7233
-25.2518
-25.8147
-26.4102
-27.0365
-27.6918
-28.3745
-29.0831
-29.8159
-30.5711
-31.3464
-32.1397
-32.9483
-33.77
-34.6026
-35.4441
-36.293
-37.1473
-38.0051
-38.8642
-39.722
-40.5761
-41.4243
-42.265
-43.0967
-43.9187
-44.73
-45.5293
-46.3148
-47.0837
-47.8327
-48.5578
-48.4715
-47.8349
-47.1838
-46.5192
-45.84
-45.1431
-44.4242
-43.6788
-42.9033
-42.0961
-41.2578
-40.3915
-39.5021
-38.5956
-37.678
-36.7551
-35.8314
-34.911
-33.9975
-33.0948
-32.2069
-31.3383
-30.4935
-29.6767
-28.8914
-28.1404
-27.4258
-26.7491
-26.1115
-25.514
-24.9571
-24.4409
-23.9653
-23.5293
-23.1321
-22.7728
-22.4506
-22.1653
-21.9168
-21.7048
-21.5292
-21.3892
-21.2841
-21.2127
-21.1744
-21.1689
-21.1964
-21.258
-21.3551
-21.4896
-21.6628
-21.8763
-22.1307
-22.4266
-22.7641
-23.1431
-23.5631
-24.0236
-24.5231
-25.06
-25.6321
-26.2371
-26.8729
-27.5377
-28.2299
-28.9485
-29.692
-30.4588
-31.2465
-32.0523
-32.8733
-33.7069
-34.5507
-35.4031
-36.2629
-37.1286
-37.9985
-38.87
-39.7401
-40.6057
-41.4641
-42.3136
-43.1535
-43.9839
-44.805
-45.6163
-46.4163
-47.2021
-47.9697
-48.7141
-48.6221
-47.9735
-47.3171
-46.6543
-45.9831
-45.2979
-44.591
-43.854
-43.0801
-42.2657
-41.4112
-40.5211
-39.6029
-38.6653
-37.7168
-36.7642
-35.8125
-34.8649
-33.9245
-32.9944
-32.0791
-31.1837
-30.314
-29.4751
-28.6711
-27.9047
-27.1777
-26.4912
-25.8461
-25.2434
-24.6837
-24.1671
-23.6929
-23.2596
-22.8655
-22.5089
-22.189
-21.9055
-21.6587
-21.449
-21.2762
-21.1396
-21.0376
-20.9684
-20.9304
-20.9229
-20.9462
-21.0019
-21.0923
-21.2202
-21.3881
-21.5977
-21.8502
-22.1458
-22.4848
-22.8671
-23.2925
-23.7605
-24.2698
-24.8182
-25.4028
-26.0205
-26.6684
-27.3446
-28.0481
-28.7785
-29.5352
-30.3168
-31.1208
-31.9434
-32.7807
-33.6293
-34.4867
-35.3518
-36.2244
-37.1041
-37.9896
-38.8779
-39.7647
-40.6455
-41.5164
-42.3757
-43.2237
-44.0622
-44.8935
-45.719
-46.5376
-47.3461
-48.1393
-48.9106
-48.7898
-48.123
-47.4591
-46.8012
-46.146
-45.4838
-44.8009
-44.0821
-43.315
-42.4928
-41.6158
-40.6913
-39.7317
-38.7508
-37.7614
-36.7722
-35.7877
-34.809
-33.8368
-32.8732
-31.9228
-30.9926
-30.0905
-29.2237
-28.397
-27.6129
-26.8719
-26.1743
-25.5203
-24.9115
-24.3489
-23.8329
-23.3623
-22.9342
-22.5455
-22.1932
-21.8758
-21.5937
-21.3482
-21.1408
-20.9721
-20.8411
-20.7449
-20.6801
-20.6435
-20.6335
-20.6503
-20.6966
-20.7764
-20.8943
-21.0541
-21.2584
-21.5083
-21.8035
-22.144
-22.5297
-22.9613
-23.4388
-23.961
-24.5251
-25.1267
-25.7609
-26.4237
-27.1128
-27.8282
-28.5712
-29.3431
-30.1432
-30.9686
-31.8137
-32.6723
-33.5393
-34.4117
-35.2898
-36.1757
-37.0714
-37.9768
-38.8879
-39.798
-40.6992
-41.5853
-42.4539
-43.3071
-44.1504
-44.9902
-45.831
-46.6729
-47.5116
-48.3399
-49.1482
-48.964
-48.2677
-47.5923
-46.944
-46.3185
-45.6994
-45.0621
-44.3795
-43.6292
-42.7987
-41.8886
-40.9122
-39.8909
-38.8488
-37.8059
-36.7738
-35.7546
-34.744
-33.7371
-32.7332
-31.7378
-30.7614
-29.8168
-28.9149
-28.0621
-27.2594
-26.5045
-25.7948
-25.1304
-24.5136
-23.9477
-23.4342
-22.9711
-22.5531
-22.1738
-21.8278
-21.5128
-21.23
-20.9835
-20.7777
-20.6148
-20.4932
-20.4079
-20.352
-20.3193
-20.3061
-20.3129
-20.344
-20.4067
-20.5087
-20.6568
-20.8544
-21.1018
-21.397
-21.7387
-22.1273
-22.5648
-23.0533
-23.5927
-24.1788
-24.8043
-25.4608
-26.1416
-26.8438
-27.5691
-28.323
-29.1106
-29.9338
-30.7883
-31.6649
-32.5523
-33.4416
-34.3289
-35.2168
-36.1129
-37.025
-37.9556
-38.8993
-39.8439
-40.7745
-41.6793
-42.5541
-43.4044
-44.243
-45.0851
-45.941
-46.8121
-47.6918
-48.5684
-49.4281
-49.1281
-48.3821
-47.6859
-47.0538
-46.4816
-45.9412
-45.3884
-44.7744
-44.0588
-43.219
-42.2569
-41.1975
-40.0803
-38.948
-37.8349
-36.7571
-35.7093
-34.6739
-33.6333
-32.5812
-31.5256
-30.485
-29.4821
-28.5359
-27.6555
-26.8376
-26.0723
-25.351
-24.6724
-24.0429
-23.4717
-22.9637
-22.5156
-22.1169
-21.7548
-21.4186
-21.1041
-20.8149
-20.561
-20.3535
-20.1987
-20.094
-20.0293
-19.9914
-19.9677
-19.9509
-19.9413
-19.947
-19.9809
-20.0578
-20.189
-20.3797
-20.6271
-20.9244
-21.2669
-21.6551
-22.0954
-22.5954
-23.1578
-23.7765
-24.438
-25.1265
-25.8294
-26.5419
-27.2696
-28.0265
-28.8275
-29.6798
-30.5767
-31.5007
-32.43
-33.3471
-34.2452
-35.1322
-36.0274
-36.9518
-37.9155
-38.9095
-39.9098
-40.8867
-41.8162
-42.6894
-43.518
-44.3304
-45.1598
-46.0284
-46.9384
-47.8759
-48.8205
-49.7521
-49.2575
-48.4243
-47.6866
-47.0771
-46.5983
-46.2007
-45.8025
-45.3157
-44.6671
-43.8153
-42.7653
-41.5661
-40.2914
-39.0196
-37.8131
-36.6971
-35.6467
-34.6114
-33.5464
-32.4348
-31.2922
-30.1547
-29.0661
-28.0627
-27.1594
-26.3407
-25.5774
-24.8463
-24.1444
-23.4891
-22.9052
-22.4077
-21.9897
-21.629
-21.2991
-20.9791
-20.6598
-20.3499
-20.0726
-19.8544
-19.7113
-19.6378
-19.6132
-19.6111
-19.6072
-19.5863
-19.5488
-19.5099
-19.4944
-19.5293
-19.6365
-19.8242
-20.0811
-20.3878
-20.7299
-21.1087
-21.541
-22.0485
-22.6428
-23.3131
-24.0333
-24.7722
-25.5041
-26.2187
-26.9287
-27.667
-28.4712
-29.3619
-30.3265
-31.3291
-32.3257
-33.2804
-34.1779
-35.0358
-35.8999
-36.8223
-37.8318
-38.9107
-40.0092
-41.0669
-42.0338
-42.8888
-43.6545
-44.393
-45.1775
-46.0559
-47.0246
-48.049
-49.091
-50.123
-49.3164
-48.3283
-47.5021
-46.9114
-46.5974
-46.4604
-46.3438
-46.0898
-45.5678
-44.6969
-43.4884
-42.0436
-40.4984
-38.9973
-37.6611
-36.5431
-35.5625
-34.5921
-33.5268
-32.3334
-31.0517
-29.7547
-28.528
-27.4459
-26.5419
-25.7648
-25.0368
-24.3001
-23.5498
-22.8334
-22.2149
-21.7382
-21.3822
-21.0972
-20.8303
-20.5392
-20.203
-19.8388
-19.4999
-19.2483
-19.1247
-19.1121
-19.1658
-19.2344
-19.2719
-19.2468
-19.1591
-19.0404
-18.9362
-18.8977
-18.9693
-19.1699
-19.4645
-19.801
-20.1409
-20.4861
-20.8791
-21.3776
-22.019
-22.7788
-23.6026
-24.4286
-25.2046
-25.9029
-26.5476
-27.2135
-27.9909
-28.9382
-30.0223
-31.1664
-32.2824
-33.2962
-34.168
-34.9307
-35.6887
-36.5675
-37.6481
-38.8836
-40.1674
-41.3777
-42.4125
-43.2163
-43.8299
-44.3891
-45.0593
-45.953
-47.0299
-48.1962
-49.3751
-50.5414
-49.2478
-47.9987
-46.9777
-46.3465
-46.3411
-46.6897
-47.0826
-47.2492
-46.9709
-46.0645
-44.5517
-42.6658
-40.6416
-38.7378
-37.1952
-36.1912
-35.4639
-34.7098
-33.692
-32.3596
-30.834
-29.2537
-27.7821
-26.5732
-25.7423
-25.1188
-24.5094
-23.7742
-22.9073
-22.0373
-21.3213
-20.8955
-20.6734
-20.5405
-20.3972
-20.1653
-19.7876
-19.2922
-18.8025
-18.4588
-18.3795
-18.4921
-18.6981
-18.9036
-19.0279
-18.9984
-18.8152
-18.5509
-18.2848
-18.1085
-18.1172
-18.3813
-18.7885
-19.2105
-19.5454
-19.7955
-20.0666
-20.5016
-21.2257
-22.1532
-23.1698
-24.1577
-25.0177
-25.6652
-26.1367
-26.6
-27.2667
-28.3183
-29.6323
-31.0447
-32.3867
-33.5169
-34.3155
-34.8328
-35.3037
-36.0224
-37.2412
-38.7873
-40.4312
-41.941
-43.1237
-43.8174
-44.0831
-44.2251
-44.6188
-45.5856
-46.9058
-48.3245
-49.6767
-50.9899
-48.924
-47.34
-45.8923
-44.8805
-45.5755
-46.8553
-48.1472
-49.0494
-49.2782
-48.3051
-46.1522
-43.4873
-40.6115
-37.9581
-35.954
-35.4412
-35.404
-35.2076
-34.3107
-32.6645
-30.6951
-28.597
-26.6583
-25.1567
-24.6447
-24.4531
-24.1638
-23.4386
-22.2697
-21.0202
-20.0104
-19.7604
-19.8367
-19.9996
-20.0925
-20.0022
-19.5427
-18.738
-17.8956
-17.2895
-17.3585
-17.7385
-18.2321
-18.6906
-19.0064
-18.9725
-18.5889
-18.0647
-17.5049
-17.0539
-16.8983
-17.3874
-18.0921
-18.7462
-19.073
-19.0754
-19.0187
-19.2101
-20.1403
-21.3999
-22.7793
-24.0718
-25.1377
-25.6816
-25.7382
-25.6943
-25.9887
-27.321
-29.1009
-31.025
-32.7963
-34.2156
-34.8684
-34.8019
-34.5619
-34.7574
-36.3631
-38.5501
-40.8881
-42.9751
-44.5389
-45.0343
-44.5141
-43.6983
-43.3525
-44.7086
-46.6393
-48.5478
-50.0335
-51.344
-47.8214
-46.4849
-44.1784
-40.9554
-43.9668
-47.003
-49.7725
-51.8187
-53.3163
-52.2445
-48.4899
-44.6123
-40.2611
-36.2435
-32.5657
-34.0064
-35.5735
-36.7147
-36.0088
-33.4353
-30.7423
-27.711
-24.9057
-22.3158
-23.0863
-23.9288
-24.4468
-23.7424
-21.7493
-19.6586
-17.6063
-18.1564
-18.8764
-19.5603
-20.0527
-20.3715
-19.7961
-18.2392
-16.6492
-15.1493
-15.8908
-16.8222
-17.8179
-18.6842
-19.4895
-19.4516
-18.5659
-17.6313
-16.5693
-15.5751
-14.7519
-16.0843
-17.4694
-18.7543
-19.0686
-18.4413
-17.6146
-16.8555
-18.5817
-20.4749
-22.515
-24.3131
-26.0104
-26.4006
-25.4855
-24.3022
-23.2167
-25.6802
-28.3624
-31.2258
-33.7134
-36.0184
-36.4576
-35.0212
-33.1934
-31.4617
-34.6481
-38.0953
-41.7066
-44.7623
-47.4923
-47.7133
-45.3706
-42.4941
-39.635
-43.0038
-46.4038
-49.3792
-50.6412
-50.9084
-42.9275
-47.0251
-43.7838
-28.0525
-42.3223
-47.5345
-52.4389
-55.378
-61.0538
-60.0471
-51.0048
-46.4193
-39.4305
-34.0399
-21.8069
-32.39
-36.3566
-40.8822
-40.3966
-34.3786
-31.277
-26.5003
-22.8435
-14.6364
-21.425
-23.8721
-26.4911
-25.9026
-21.37
-18.2424
-11.4556
-16.3082
-17.969
-19.3977
-20.2637
-22.0293
-21.464
-17.7892
-15.274
-9.78235
-14.1507
-15.8141
-17.5914
-18.7668
-21.1879
-21.1528
-18.6147
-17.3823
-15.5369
-13.851
-9.5023
-14.7061
-16.9922
-20.1612
-20.4211
-18.0955
-16.1141
-10.923
-16.7834
-19.3392
-22.6003
-24.7004
-28.7662
-29.0003
-25.6197
-22.7698
-15.3348
-23.725
-27.3636
-31.9683
-34.894
-40.5087
-40.7479
-35.8046
-31.6866
-21.0839
-32.5579
-37.4041
-43.3249
-47.0186
-54.0583
-54.0839
-46.9952
-41.2642
-26.9491
-41.2532
-46.779
-52.6772
-52.6812
-45.9229
-49.0603
-49.8224
-50.5363
-51.1982
-51.8052
-52.3556
-52.8483
-53.2829
-53.66
-53.9804
-54.245
-54.455
-54.6114
-54.7152
-54.7669
-49.1034
-49.8699
-50.5874
-51.2521
-51.8611
-52.4125
-52.9053
-53.3396
-53.7159
-54.0351
-54.2986
-54.5076
-54.6631
-54.7663
-54.8177
-49.1901
-49.9656
-50.6906
-51.361
-51.9737
-52.5269
-53.02
-53.4533
-53.8277
-54.1447
-54.4058
-54.6125
-54.7662
-54.8681
-54.9188
-49.3212
-50.1109
-50.8477
-51.5267
-52.1449
-52.7005
-53.1935
-53.6248
-53.9961
-54.3093
-54.5664
-54.7695
-54.9203
-55.02
-55.0696
-49.4983
-50.3083
-51.0617
-51.7526
-52.3777
-52.9358
-53.4278
-53.8555
-54.2216
-54.5288
-54.7801
-54.9779
-55.1243
-55.221
-55.2691
-49.7236
-50.5618
-51.3373
-52.0434
-52.6765
-53.2365
-53.7254
-54.1469
-54.5048
-54.8033
-55.0461
-55.2365
-55.377
-55.4696
-55.5156
-50.0008
-50.8771
-51.6817
-52.4063
-53.0476
-53.6073
-54.0897
-54.5008
-54.8465
-55.1325
-55.3636
-55.544
-55.6766
-55.7638
-55.8071
-50.3354
-51.2633
-52.1055
-52.8515
-53.4996
-54.0546
-54.5246
-54.9191
-55.2469
-55.5154
-55.7309
-55.8981
-56.0206
-56.1009
-56.1407
-50.736
-51.7345
-52.6247
-53.3939
-54.044
-54.586
-55.0344
-55.4034
-55.7056
-55.9504
-56.1454
-56.2958
-56.4056
-56.4775
-56.513
-51.2159
-52.3133
-53.2642
-54.0543
-54.6954
-55.2102
-55.6227
-55.9541
-56.2207
-56.4344
-56.6033
-56.733
-56.8275
-56.8892
-56.9197
-51.7954
-53.0376
-54.0632
-54.8627
-55.4718
-55.9352
-56.2912
-56.5688
-56.7882
-56.9622
-57.0992
-57.2044
-57.2809
-57.331
-57.3558
-52.5048
-53.9774
-55.0871
-55.8608
-56.3924
-56.7656
-57.0366
-57.241
-57.4002
-57.5263
-57.6261
-57.7032
-57.7597
-57.7969
-57.8154
-53.3953
-55.2795
-56.4459
-57.101
-57.4713
-57.6965
-57.8469
-57.9573
-58.0445
-58.1159
-58.1745
-58.2214
-58.2567
-58.2803
-58.2922
-54.6301
-57.2985
-58.3142
-58.6245
-58.6952
-58.7005
-58.6956
-58.6958
-58.7037
-58.7174
-58.7338
-58.7501
-58.7641
-58.7742
-58.7796
-57.3069
-60.9689
-60.8866
-60.3865
-59.984
-59.7128
-59.5372
-59.4256
-59.3565
-59.3153
-59.2921
-59.2799
-59.2741
-59.2717
-59.2709
-58.9744
-58.9753
-58.9778
-58.9837
-58.9956
-59.0183
-59.0585
-59.1275
-59.2437
-59.4397
-59.7791
-60.4067
-61.726
-65.1679
-77.0377
-59.4017
-59.4069
-59.4182
-59.4376
-59.4687
-59.5169
-59.5909
-59.7042
-59.8793
-60.1551
-60.6041
-61.3692
-62.742
-65.2473
-68.9703
-59.8245
-59.8333
-59.852
-59.8827
-59.9291
-59.9971
-60.0954
-60.2374
-60.4441
-60.7492
-61.2082
-61.9089
-62.971
-64.4802
-66.3675
-60.2404
-60.2521
-60.2766
-60.3161
-60.374
-60.4557
-60.5689
-60.7249
-60.9395
-61.2354
-61.6434
-62.1973
-62.8888
-63.4495
-62.2182
-60.6471
-60.6611
-60.6901
-60.7358
-60.8016
-60.8917
-61.0122
-61.1711
-61.3775
-61.6424
-61.9766
-62.3893
-62.8966
-63.6624
-65.9932
-61.0433
-61.0589
-61.0909
-61.141
-61.2115
-61.306
-61.4284
-61.5833
-61.7738
-62.0001
-62.2546
-62.5147
-62.7239
-62.7876
-62.6306
-61.4276
-61.4443
-61.4784
-61.5311
-61.6042
-61.7003
-61.8216
-61.9699
-62.1439
-62.3366
-62.5287
-62.6747
-62.6511
-62.0655
-59.1709
-61.7994
-61.8167
-61.852
-61.9061
-61.9804
-62.0764
-62.1955
-62.3377
-62.4997
-62.6719
-62.8346
-62.9515
-62.9671
-62.9463
-64.3228
-62.158
-62.1758
-62.2116
-62.2663
-62.3408
-62.4361
-62.553
-62.6909
-62.8467
-63.0122
-63.1722
-63.298
-63.3071
-62.8561
-59.8334
-62.5034
-62.5212
-62.5572
-62.6119
-62.686
-62.7803
-62.8953
-63.031
-63.1854
-63.3544
-63.5334
-63.7249
-63.9652
-64.5511
-67.5919
-62.8353
-62.8531
-62.8889
-62.9431
-63.0164
-63.1095
-63.223
-63.3573
-63.5124
-63.6877
-63.886
-64.1169
-64.3817
-64.5409
-63.1406
-63.1537
-63.1714
-63.2068
-63.2603
-63.3324
-63.4239
-63.5356
-63.6685
-63.8236
-64.0032
-64.2156
-64.4848
-64.87
-65.613
-68.1726
-63.4589
-63.4762
-63.511
-63.5635
-63.6342
-63.7238
-63.8332
-63.9634
-64.1161
-64.294
-64.5057
-64.7712
-65.1082
-65.4229
-64.5528
-63.751
-63.7679
-63.8019
-63.8532
-63.9222
-64.0094
-64.1157
-64.242
-64.3893
-64.5594
-64.7585
-65.007
-65.3603
-66.055
-68.3487
-64.0302
-64.0467
-64.0798
-64.1297
-64.1967
-64.2812
-64.3839
-64.5053
-64.6451
-64.8025
-64.9767
-65.1692
-65.3737
-65.576
-65.7449
-64.2968
-64.3129
-64.345
-64.3934
-64.4582
-64.5399
-64.6388
-64.7549
-64.887
-65.0318
-65.1823
-65.3223
-65.3868
-65.1196
-63.2722
-64.5512
-64.5667
-64.5978
-64.6446
-64.7073
-64.786
-64.8812
-64.9925
-65.1184
-65.2549
-65.395
-65.527
-65.6286
-65.7599
-66.9027
-64.7936
-64.8086
-64.8387
-64.8839
-64.9443
-65.0202
-65.1119
-65.2191
-65.3406
-65.4735
-65.6133
-65.7519
-65.8483
-65.697
-63.9689
-65.0245
-65.039
-65.068
-65.1116
-65.1698
-65.243
-65.3313
-65.4349
-65.5531
-65.6852
-65.8323
-66.0052
-66.2382
-66.7286
-68.777
-65.2441
-65.2581
-65.2861
-65.3281
-65.3842
-65.4546
-65.5397
-65.6396
-65.7543
-65.8842
-66.0334
-66.2159
-66.4475
-66.6777
-66.0942
-65.4528
-65.4663
-65.4933
-65.5337
-65.5878
-65.6555
-65.7372
-65.8332
-65.9432
-66.0677
-66.2111
-66.3917
-66.6562
-67.191
-68.9274
-65.651
-65.664
-65.69
-65.729
-65.781
-65.8461
-65.9245
-66.0161
-66.1202
-66.2358
-66.3631
-66.5082
-66.6753
-66.8692
-67.0745
-65.839
-65.8515
-65.8766
-65.9142
-65.9643
-66.0269
-66.1021
-66.1895
-66.2875
-66.3933
-66.5027
-66.6087
-66.6741
-66.5387
-65.3789
-66.017
-66.0291
-66.0534
-66.0897
-66.138
-66.1984
-66.2708
-66.3545
-66.4476
-66.5462
-66.6446
-66.7365
-66.8105
-66.9191
-67.7327
-66.1854
-66.1972
-66.2206
-66.2558
-66.3026
-66.3611
-66.4311
-66.5121
-66.6021
-66.697
-66.7909
-66.8758
-66.9211
-66.8092
-65.8263
-66.3445
-66.3559
-66.3786
-66.4127
-66.4582
-66.5151
-66.5833
-66.6626
-66.7512
-66.8462
-66.9436
-67.0418
-67.139
-67.3034
-68.2119
-66.4944
-66.5055
-66.5276
-66.5608
-66.605
-66.6605
-66.7274
-66.8056
-66.8942
-66.9913
-67.0956
-67.2075
-67.3087
-67.2803
-66.2836
-66.6354
-66.6462
-66.6677
-66.7
-66.7432
-66.7975
-66.8632
-66.9405
-67.0293
-67.1292
-67.2424
-67.3797
-67.5665
-67.9289
-69.2736
-66.7677
-66.7782
-66.7992
-66.8307
-66.8729
-66.926
-66.9904
-67.0667
-67.1549
-67.2556
-67.3723
-67.5168
-67.7005
-67.8947
-67.617
-66.8915
-66.9018
-66.9222
-66.9529
-66.9941
-67.0459
-67.1089
-67.1835
-67.27
-67.3686
-67.4828
-67.6258
-67.8253
-68.1876
-69.2459
-67.007
-67.017
-67.0369
-67.0669
-67.107
-67.1575
-67.2188
-67.2913
-67.3748
-67.4685
-67.5732
-67.6947
-67.8354
-67.9964
-68.1615
-67.1143
-67.124
-67.1435
-67.1727
-67.2117
-67.2609
-67.3205
-67.3907
-67.4705
-67.5583
-67.6519
-67.7494
-67.8297
-67.8017
-67.2069
-67.2136
-67.2231
-67.2421
-67.2706
-67.3087
-67.3566
-67.4145
-67.4823
-67.559
-67.6419
-67.7278
-67.8152
-67.8972
-68.0001
-68.4819
-67.3051
-67.3144
-67.3329
-67.3607
-67.3979
-67.4446
-67.501
-67.567
-67.6412
-67.7209
-67.8027
-67.884
-67.9483
-67.9348
-67.4791
-67.3889
-67.398
-67.4161
-67.4433
-67.4796
-67.5253
-67.5805
-67.645
-67.7177
-67.7961
-67.8779
-67.9637
-68.0518
-68.1758
-68.6739
-67.4652
-67.474
-67.4918
-67.5184
-67.554
-67.5988
-67.6529
-67.7164
-67.7883
-67.8668
-67.9504
-68.0408
-68.1284
-68.1565
-67.7308
-67.534
-67.5427
-67.5601
-67.5862
-67.6212
-67.6651
-67.7184
-67.781
-67.8524
-67.9314
-68.0182
-68.1191
-68.2446
-68.4516
-69.1116
-67.5955
-67.6041
-67.6212
-67.6469
-67.6812
-67.7245
-67.7769
-67.8387
-67.9095
-67.9883
-68.0761
-68.1795
-68.3024
-68.4314
-68.3616
-67.6499
-67.6583
-67.6751
-67.7004
-67.7342
-67.7767
-67.8284
-67.8892
-67.959
-68.0367
-68.1232
-68.2256
-68.354
-68.5487
-69.0219
-67.6971
-67.7054
-67.722
-67.7469
-67.7802
-67.8221
-67.8729
-67.9328
-68.0011
-68.0766
-68.1591
-68.2529
-68.3578
-68.4719
-68.5825
-67.7374
-67.7456
-67.7619
-67.7865
-67.8194
-67.8607
-67.9108
-67.9695
-68.0362
-68.1092
-68.1872
-68.2715
-68.3533
-68.397
-68.2351
-67.7706
-67.7787
-67.795
-67.8193
-67.8518
-67.8926
-67.942
-67.9998
-68.0652
-68.1361
-68.2109
-68.2912
-68.3734
-68.4642
-68.6775
-67.797
-67.8051
-67.8212
-67.8453
-67.8776
-67.918
-67.9669
-68.024
-68.0884
-68.1579
-68.2308
-68.3086
-68.3857
-68.4457
-68.3962
-67.8165
-67.8245
-67.8406
-67.8646
-67.8967
-67.937
-67.9855
-68.0423
-68.1061
-68.175
-68.2474
-68.3255
-68.4081
-68.5027
-68.6848
-67.8292
-67.8372
-67.8532
-67.8773
-67.9093
-67.9495
-67.998
-68.0547
-68.1185
-68.1874
-68.2599
-68.3385
-68.4204
-68.4982
-68.526
-67.8351
-67.8431
-67.8592
-67.8832
-67.9154
-67.9557
-68.0044
-68.0613
-68.1254
-68.1948
-68.2682
-68.3483
-68.4339
-68.5277
-68.6595
-67.834
-67.8421
-67.8583
-67.8825
-67.9149
-67.9555
-68.0045
-68.0619
-68.1267
-68.1972
-68.2719
-68.3535
-68.4398
-68.5302
-68.6421
-67.8262
-67.8343
-67.8506
-67.8751
-67.9077
-67.9488
-67.9984
-68.0565
-68.1223
-68.1942
-68.2708
-68.3546
-68.4411
-68.5171
-68.5321
-67.8113
-67.8196
-67.8361
-67.8608
-67.8939
-67.9355
-67.9858
-68.0448
-68.1119
-68.1854
-68.2647
-68.3529
-68.448
-68.5457
-68.6333
-67.7895
-67.7979
-67.8146
-67.8397
-67.8733
-67.9155
-67.9666
-68.0267
-68.095
-68.1704
-68.2524
-68.3455
-68.4512
-68.5806
-68.8106
-67.7606
-67.7691
-67.7861
-67.8117
-67.8458
-67.8887
-67.9407
-68.0018
-68.0715
-68.1484
-68.2325
-68.3284
-68.4361
-68.5452
-68.5572
-67.7245
-67.7332
-67.7505
-67.7766
-67.8113
-67.8551
-67.908
-67.9702
-68.0409
-68.119
-68.2043
-68.3024
-68.4182
-68.5766
-68.9331
-67.6811
-67.69
-67.7077
-67.7343
-67.7698
-67.8144
-67.8684
-67.9316
-68.0034
-68.0822
-68.1673
-68.2631
-68.369
-68.4696
-68.3962
-67.6303
-67.6393
-67.6575
-67.6846
-67.721
-67.7666
-67.8218
-67.8863
-67.9592
-68.0385
-68.1229
-68.2158
-68.3218
-68.4829
-68.9995
-67.5719
-67.5812
-67.5997
-67.6276
-67.6648
-67.7116
-67.7681
-67.8342
-67.9087
-67.989
-68.0726
-68.1586
-68.2345
-68.2486
-67.886
-67.5058
-67.5153
-67.5343
-67.5629
-67.6012
-67.6493
-67.7074
-67.7754
-67.8521
-67.9349
-68.0206
-68.1077
-68.1881
-68.2754
-68.627
-67.4318
-67.4416
-67.4611
-67.4905
-67.5298
-67.5793
-67.6392
-67.7096
-67.7894
-67.8764
-67.9676
-68.0604
-68.1351
-68.118
-67.6644
-67.3498
-67.3598
-67.3798
-67.41
-67.4504
-67.5014
-67.5633
-67.6363
-67.7199
-67.8125
-67.9133
-68.025
-68.144
-68.2632
-68.3652
-67.2595
-67.2698
-67.2903
-67.3213
-67.3629
-67.4154
-67.4792
-67.5549
-67.6422
-67.7406
-67.8516
-67.9835
-68.1511
-68.4196
-69.1524
-67.1608
-67.1713
-67.1924
-67.2242
-67.2669
-67.3207
-67.3864
-67.4644
-67.5548
-67.6576
-67.7752
-67.9165
-68.0861
-68.253
-68.0587
-67.0535
-67.0642
-67.0859
-67.1184
-67.1621
-67.2173
-67.2846
-67.3644
-67.4568
-67.5619
-67.6823
-67.829
-68.021
-68.3367
-69.2507
-66.9374
-66.9484
-66.9705
-67.0038
-67.0485
-67.1049
-67.1735
-67.2547
-67.3482
-67.4533
-67.5712
-67.7091
-67.8683
-68.0042
-67.6298
-66.8123
-66.8236
-66.8462
-66.8802
-66.9259
-66.9834
-67.0532
-67.1355
-67.2295
-67.3333
-67.4463
-67.5735
-67.7299
-68.0253
-69.2276
-66.6782
-66.6897
-66.7128
-66.7475
-66.794
-66.8527
-66.9238
-67.0073
-67.1019
-67.2047
-67.3113
-67.4167
-67.4932
-67.4161
-66.4014
-66.5347
-66.5465
-66.57
-66.6054
-66.6529
-66.7128
-66.7853
-66.8705
-66.9669
-67.0709
-67.1772
-67.2792
-67.3611
-67.4574
-68.1605
-66.3819
-66.3938
-66.4178
-66.4539
-66.5023
-66.5634
-66.6376
-66.725
-66.8245
-66.9332
-67.0462
-67.1545
-67.2172
-67.0768
-65.9751
-66.2194
-66.2316
-66.256
-66.2927
-66.342
-66.4043
-66.4802
-66.5701
-66.6738
-66.7901
-66.9183
-67.0608
-67.2125
-67.3629
-67.4885
-66.0473
-66.0596
-66.0844
-66.1216
-66.1717
-66.2351
-66.3125
-66.4047
-66.5124
-66.6364
-66.7805
-66.9596
-67.2069
-67.6655
-69.1048
-65.8652
-65.8778
-65.9029
-65.9406
-65.9914
-66.0556
-66.134
-66.2278
-66.3378
-66.4662
-66.6185
-66.8102
-67.0526
-67.2864
-66.787
-65.6732
-65.6859
-65.7113
-65.7495
-65.8008
-65.8655
-65.9444
-66.0385
-66.1487
-66.2768
-66.4292
-66.6247
-66.9023
-67.4158
-69.0873
-65.4712
-65.484
-65.5097
-65.5483
-65.5999
-65.6649
-65.7438
-65.8371
-65.9451
-66.0682
-66.2098
-66.3813
-66.5865
-66.7402
-65.914
-65.2589
-65.2719
-65.2979
-65.3369
-65.3889
-65.4541
-65.5327
-65.6247
-65.7291
-65.8443
-65.9698
-66.1135
-66.3045
-66.7445
-68.8323
-65.0364
-65.0496
-65.0759
-65.1154
-65.1679
-65.2334
-65.3119
-65.4027
-65.5037
-65.6107
-65.7171
-65.8118
-65.8478
-65.6038
-63.6712
-64.8035
-64.8169
-64.8437
-64.8837
-64.9369
-65.0031
-65.082
-65.1726
-65.2722
-65.3753
-65.4725
-65.5502
-65.5836
-65.6351
-66.7281
-64.56
-64.5737
-64.601
-64.6419
-64.6961
-64.7634
-64.8435
-64.9354
-65.0364
-65.1415
-65.2414
-65.3183
-65.305
-64.9424
-62.9656
-64.3057
-64.3198
-64.3478
-64.3897
-64.4452
-64.5142
-64.5963
-64.6908
-64.796
-64.9088
-65.0262
-65.1482
-65.2671
-65.37
-65.4395
-64.0405
-64.0549
-64.0838
-64.1269
-64.1842
-64.2553
-64.3401
-64.4381
-64.5484
-64.6704
-64.808
-64.9795
-65.2383
-65.8202
-67.9769
-63.764
-63.7789
-63.8087
-63.8534
-63.9126
-63.9863
-64.0742
-64.1758
-64.2907
-64.419
-64.566
-64.7492
-64.9832
-65.1761
-64.2068
-63.4758
-63.4913
-63.5223
-63.5686
-63.6302
-63.7068
-63.7982
-63.9036
-64.0218
-64.1521
-64.299
-64.4827
-64.7549
-65.3383
-67.5992
-63.1758
-63.1918
-63.224
-63.2722
-63.3364
-63.4166
-63.512
-63.6216
-63.7425
-63.8713
-64.0065
-64.1539
-64.3085
-64.335
-62.8933
-62.8633
-62.88
-62.9133
-62.9636
-63.0309
-63.1151
-63.2157
-63.3307
-63.4559
-63.5838
-63.7056
-63.8191
-63.9493
-64.3506
-66.8845
-62.5382
-62.5553
-62.5899
-62.6422
-62.7127
-62.8017
-62.9089
-63.032
-63.1656
-63.2981
-63.4106
-63.4718
-63.4001
-62.8846
-60.081
-62.1999
-62.2175
-62.253
-62.3071
-62.3809
-62.4752
-62.5904
-62.7253
-62.8741
-63.0241
-63.1511
-63.216
-63.1571
-63.007
-63.914
-61.8483
-61.866
-61.902
-61.9575
-62.034
-62.1335
-62.258
-62.4079
-62.58
-62.7637
-62.9349
-63.0452
-62.9756
-62.3948
-59.9391
-61.4833
-61.5008
-61.5365
-61.5922
-61.6703
-61.774
-61.9074
-62.0743
-62.2762
-62.5096
-62.761
-62.9986
-63.1472
-63.0841
-62.7251
-61.1049
-61.1217
-61.1562
-61.2105
-61.288
-61.3934
-61.5333
-61.7155
-61.9486
-62.2407
-62.5966
-63.013
-63.4643
-63.9781
-65.2759
-60.7139
-60.7292
-60.761
-60.8117
-60.8855
-60.9884
-61.1293
-61.3204
-61.5784
-61.9254
-62.3903
-63.0025
-63.7361
-64.327
-63.5428
-60.3111
-60.3242
-60.3516
-60.396
-60.462
-60.5564
-60.6899
-60.8782
-61.1446
-61.5259
-62.0818
-62.9068
-64.1055
-65.6301
-66.4778
-59.8982
-59.9081
-59.9293
-59.9644
-60.0179
-60.0969
-60.2122
-60.3808
-60.6293
-61.003
-61.5865
-62.5509
-64.2469
-67.4027
-73.0413
-59.4773
-59.4833
-59.4965
-59.5192
-59.5554
-59.6115
-59.6971
-59.8271
-60.0253
-60.3323
-60.8269
-61.6862
-63.3727
-67.4507
-80.5069
-80.8836
-67.7651
-63.6251
-61.9117
-61.0451
-60.5511
-60.2481
-60.0545
-59.9285
-59.8463
-59.7929
-59.7586
-59.7373
-59.725
-59.7194
-73.8728
-67.7073
-64.428
-62.7097
-61.751
-61.1789
-60.8169
-60.5785
-60.4178
-60.3085
-60.2341
-60.184
-60.1512
-60.1315
-60.1223
-66.3146
-65.6444
-64.1451
-62.9799
-62.1882
-61.659
-61.2984
-61.0476
-60.8709
-60.746
-60.6578
-60.5964
-60.5551
-60.5298
-60.5177
-64.0767
-64.1561
-63.6284
-62.9902
-62.4431
-62.0202
-61.702
-61.4643
-61.2877
-61.1574
-61.0622
-60.994
-60.9471
-60.9178
-60.9037
-61.7967
-63.0886
-63.1867
-62.9367
-62.6117
-62.307
-62.048
-61.8377
-61.6719
-61.5439
-61.4471
-61.3759
-61.3259
-61.2942
-61.2788
-63.0833
-62.8493
-62.985
-62.9349
-62.7659
-62.5601
-62.3585
-62.1795
-62.0293
-61.9082
-61.8135
-61.7421
-61.6911
-61.6583
-61.6422
-60.0955
-62.3522
-62.9107
-63.0151
-62.9457
-62.8084
-62.6517
-62.5002
-62.3661
-62.2536
-62.1631
-62.0933
-62.0426
-62.0096
-61.9934
-64.0365
-63.0335
-63.1499
-63.2157
-63.1723
-63.0683
-62.9394
-62.8081
-62.6874
-62.5832
-62.4975
-62.4302
-62.3807
-62.3483
-62.3322
-60.206
-62.9364
-63.4225
-63.4915
-63.441
-63.3436
-63.2269
-63.1077