/*--------------------------------*- C++ -*----------------------------------*\
| =========                 |                                                 |
| \\      /  F ield         | OpenFOAM: The Open Source CFD Toolbox           |
|  \\    /   O peration     | Version:  5.x                                   |
|   \\  /    A nd           | Web:      www.OpenFOAM.org                      |
|    \\/     M anipulation  |                                                 |
\*---------------------------------------------------------------------------*/
FoamFile
{
    version     2.0;
    format      ascii;
    class       volScalarField;
    location    "1.3";
    object      gradTy;
}
// * * * * * * * * * * * * * * * * * * * * * * * * * * * * * * * * * * * * * //

dimensions      [0 -1 0 1 0 0 0];

internalField   nonuniform List<scalar> 
6300
(
32273
32219
32165
32111.2
32057.5
32004.1
31950.9
31898.1
31845.7
31793.6
31742.1
31691.1
31640.6
31590.8
31541.6
-0.0362059
-0.108767
-0.181745
-0.255356
-0.329731
-0.404864
-0.480577
-0.556494
-0.632025
-0.70638
-0.778622
-0.847763
-0.912921
-0.973487
-1.0293
-0.0601722
-0.180789
-0.302171
-0.424718
-0.548684
-0.674096
-0.800693
-0.927861
-1.05461
-1.17956
-1.30104
-1.41723
-1.52647
-1.62755
-1.7201
-0.0838794
-0.252046
-0.421409
-0.592628
-0.766145
-0.94209
-1.12017
-1.29958
-1.4789
-1.65611
-1.82864
-1.99357
-2.1481
-2.29007
-2.41863
-0.107167
-0.322097
-0.53878
-0.75822
-0.981152
-1.20791
-1.43828
-1.67133
-1.90525
-2.1373
-2.36375
-2.58024
-2.78223
-2.96597
-3.1296
-0.129839
-0.390358
-0.653345
-0.920258
-1.19225
-1.47003
-1.7536
-2.04208
-2.33336
-2.62392
-2.9087
-3.18126
-3.43446
-3.66181
-3.8594
-0.151669
-0.456141
-0.763958
-1.07717
-1.39752
-1.72628
-2.06394
-2.40992
-2.76207
-3.11623
-3.46578
-3.80155
-4.11246
-4.38733
-4.61812
-0.172362
-0.518558
-0.869135
-1.22687
-1.5943
-1.97352
-2.36585
-2.77147
-3.18865
-3.61302
-4.0365
-4.44658
-4.8264
-5.15683
-5.4216
-0.191569
-0.576558
-0.96709
-1.3668
-1.7792
-2.20751
-2.65436
-3.1213
-3.60791
-4.11055
-4.62047
-5.12172
-5.58961
-5.99186
-6.29594
-0.20891
-0.628974
-1.0558
-1.49395
-1.94808
-2.42282
-2.92263
-3.45129
-4.011
-4.60065
-5.21297
-5.83008
-6.41827
-6.92485
-7.28536
-0.223991
-0.674588
-1.1331
-1.60503
-2.09621
-2.61294
-3.16191
-3.7501
-4.38399
-5.06795
-5.8005
-6.56715
-7.32825
-8.00354
-8.46722
-0.236443
-0.712244
-1.19691
-1.69674
-2.21869
-2.77066
-3.36185
-4.00305
-4.70678
-5.48651
-6.35373
-7.30946
-8.32363
-9.29325
-9.98433
-0.245965
-0.740992
-1.24547
-1.76623
-2.31103
-2.88904
-3.51162
-4.19333
-4.9534
-5.81737
-6.81818
-7.99292
-9.36291
-10.8607
-12.1237
-0.252373
-0.760242
-1.27765
-1.81158
-2.37003
-2.96271
-3.6021
-4.30512
-5.09597
-6.01118
-7.10833
-8.48058
-10.2736
-12.6623
-15.5041
-0.255641
-0.769895
-1.29324
-1.83229
-2.39465
-2.98953
-3.62883
-4.32893
-5.11401
-6.02276
-7.12294
-8.54682
-10.5882
-14.0102
-21.182
31497.2
31457.3
31418
31379.1
31340.9
31303.2
31266.1
31229.7
31193.8
31158.7
31124.2
31090.3
31057.2
31024.8
30993.1
30962.1
30931.9
30902.3
30873.5
30845.4
30818.1
30791.4
30765.4
30740
30715.3
30691.2
30667.7
30644.7
30622.3
30600.4
30578.9
30557.9
30537.4
30517.2
30497.3
30477.8
30458.5
30439.5
30420.7
30402.2
30383.8
30365.5
30347.3
30329.2
30311.2
30293.1
30275.1
30257
30238.9
30220.6
30202.2
30183.6
30164.9
30145.9
30126.6
30107.1
30087.2
30067
30046.3
30025.3
30003.8
29981.9
29959.4
29936.4
29912.9
29888.8
29864.1
29838.8
29812.9
29786.4
29759.1
29731.3
29702.7
29673.5
29643.5
29612.9
29581.6
29549.6
29516.8
29483.4
29449.3
29414.4
29378.9
29342.8
29305.9
29268.4
29230.2
29191.4
29152
29112
-1.07645
-1.11691
-1.1557
-1.19363
-1.23142
-1.26954
-1.3081
-1.3468
-1.3849
-1.4214
-1.45508
-1.48476
-1.50941
-1.52821
-1.54065
-1.54644
-1.54547
-1.53776
-1.52335
-1.50237
-1.47498
-1.44142
-1.40205
-1.35732
-1.3078
-1.2541
-1.19683
-1.13663
-1.0741
-1.00981
-0.944287
-0.878009
-0.811388
-0.744749
-0.678323
-0.612256
-0.546626
-0.481469
-0.416802
-0.352637
-0.288972
-0.225773
-0.162955
-0.100359
-0.037761
0.0251073
0.0885209
0.152713
0.217836
0.283927
0.350911
0.418599
0.48672
0.554937
0.622874
0.690129
0.756282
0.820918
0.883646
0.944121
1.00207
1.05729
1.10965
1.15907
1.20544
1.24865
1.28858
1.32506
1.35795
1.38714
1.41262
1.43441
1.45256
1.46714
1.47817
1.48563
1.48946
1.48964
1.4862
1.47925
1.46894
1.45545
1.43887
1.41917
1.39615
1.36941
1.3385
1.30294
1.26233
1.21648
-1.79774
-1.86401
-1.92738
-1.98946
-2.05167
-2.11502
-2.17978
-2.24541
-2.31055
-2.37326
-2.43129
-2.48243
-2.52478
-2.55697
-2.57816
-2.58799
-2.58638
-2.57342
-2.54924
-2.51401
-2.46796
-2.41147
-2.34512
-2.26971
-2.18621
-2.0957
-1.99926
-1.89798
-1.79286
-1.68487
-1.5749
-1.4638
-1.35225
-1.24082
-1.12989
-1.01966
-0.910225
-0.80161
-0.693824
-0.586896
-0.480852
-0.375673
-0.271237
-0.167278
-0.0633863
0.0409478
0.146256
0.252994
0.361457
0.471725
0.58365
0.696889
0.810948
0.925235
1.0391
1.15185
1.26276
1.3711
1.47619
1.57741
1.6743
1.76654
1.85396
1.93644
2.01389
2.08614
2.15293
2.21394
2.2689
2.31761
2.36003
2.39623
2.4264
2.45066
2.46908
2.48157
2.488
2.48826
2.48236
2.47051
2.45307
2.43044
2.40289
2.37041
2.33263
2.28884
2.23811
2.17949
2.11218
2.03574
-2.52506
-2.61506
-2.70073
-2.78486
-2.87007
-2.95823
-3.04997
-3.14446
-3.23945
-3.33162
-3.41719
-3.49248
-3.55453
-3.60131
-3.63179
-3.64575
-3.64337
-3.62498
-3.59081
-3.541
-3.47575
-3.39549
-3.30102
-3.19353
-3.07451
-2.94562
-2.80849
-2.66467
-2.51558
-2.3626
-2.20702
-2.05007
-1.89281
-1.73606
-1.58032
-1.42582
-1.27256
-1.12048
-0.969546
-0.819827
-0.671444
-0.524472
-0.378812
-0.234092
-0.0896555
0.055367
0.201901
0.35075
0.502427
0.657069
0.814421
0.973908
1.13474
1.29603
1.4568
1.61607
1.77277
1.92581
2.07412
2.21675
2.35302
2.48253
2.60514
2.72084
2.82961
2.93124
3.02532
3.11129
3.18858
3.25686
3.31608
3.36647
3.40843
3.4423
3.4682
3.48593
3.49512
3.49542
3.48677
3.46951
3.44436
3.41221
3.3737
3.32898
3.27748
3.21796
3.14878
3.06822
2.97489
2.86795
-3.26218
-3.37242
-3.47636
-3.57879
-3.68431
-3.79637
-3.91631
-4.04291
-4.1725
-4.29959
-4.41794
-4.5217
-4.60635
-4.66918
-4.7093
-4.7271
-4.72351
-4.69934
-4.65495
-4.59027
-4.50521
-4.40004
-4.27573
-4.134
-3.97709
-3.80745
-3.62739
-3.43896
-3.24395
-3.0441
-2.84113
-2.6368
-2.43265
-2.22983
-2.02898
-1.83017
-1.63318
-1.43767
-1.24349
-1.0508
-0.859961
-0.671334
-0.484979
-0.300442
-0.116704
0.0676782
0.25429
0.444512
0.639216
0.838605
1.04222
1.24909
1.458
1.66766
1.8768
2.08411
2.28819
2.48747
2.68034
2.86539
3.04162
3.2086
3.3664
3.51537
3.65574
3.78735
3.90954
4.02124
4.12139
4.20931
4.28496
4.34896
4.40222
4.44555
4.47919
4.5027
4.51514
4.51558
4.50367
4.47995
4.44585
4.4032
4.35354
4.2974
4.23395
4.16109
4.07589
3.9754
3.85719
3.71984
-4.01399
-4.13872
-4.2541
-4.36819
-4.48912
-4.62318
-4.77308
-4.93709
-5.10918
-5.28017
-5.43974
-5.57848
-5.68959
-5.76979
-5.81899
-5.83928
-5.8333
-5.80286
-5.74834
-5.66894
-5.56366
-5.43217
-5.27556
-5.09635
-4.89804
-4.68432
-4.4584
-4.22275
-3.97935
-3.7301
-3.47726
-3.2233
-2.97059
-2.72083
-2.47471
-2.23196
-1.9917
-1.75297
-1.51533
-1.27913
-1.04532
-0.814945
-0.588547
-0.365656
-0.144697
0.0767639
0.30147
0.53181
0.769255
1.01406
1.26532
1.52135
1.7802
2.04006
2.29942
2.55682
2.81053
3.05836
3.29785
3.52674
3.74355
3.94789
4.14041
4.32229
4.49449
4.65707
4.80888
4.94786
5.07183
5.17943
5.27067
5.34694
5.41035
5.46276
5.5048
5.53544
5.55248
5.55358
5.5376
5.50538
5.45969
5.40434
5.34273
5.27637
5.20403
5.122
5.0251
4.90816
4.76713
4.59967
-4.7886
-4.91856
-5.03379
-5.14789
-5.27522
-5.4274
-5.60981
-5.81998
-6.04776
-6.27757
-6.49191
-6.67538
-6.81775
-6.91539
-6.97067
-6.98966
-6.97869
-6.94144
-6.8779
-6.78526
-6.66019
-6.50084
-6.30829
-6.08654
-5.84148
-5.57906
-5.30371
-5.01801
-4.72341
-4.42157
-4.11523
-3.80824
-3.50451
-3.20676
-2.91577
-2.63035
-2.34815
-2.06682
-1.78523
-1.50412
-1.22579
-0.952893
-0.687098
-0.428104
-0.173407
0.081197
0.340575
0.608937
0.888775
1.18032
1.48169
1.78971
2.10109
2.41338
2.72509
3.03508
3.34157
3.64152
3.93089
4.20578
4.46374
4.70454
4.93009
5.14349
5.34745
5.54266
5.72708
5.89649
6.04626
6.17352
6.27837
6.36386
6.43476
6.49536
6.54724
6.58824
6.61321
6.61662
6.59538
6.55067
6.4879
6.41496
6.33924
6.26438
6.18853
6.10473
6.00354
5.876
5.7155
5.51848
-5.59923
-5.71962
-5.81516
-5.90858
-6.02567
-6.18823
-6.40681
-6.67781
-6.98376
-7.29761
-7.58891
-7.83188
-8.01073
-8.1224
-8.17502
-8.18359
-8.16237
-8.11832
-8.04977
-7.94874
-7.80649
-7.61775
-7.38348
-7.11071
-6.81034
-6.4928
-6.1643
-5.82645
-5.47827
-5.11983
-4.75447
-4.3888
-4.03012
-3.68325
-3.34904
-3.02434
-2.7036
-2.38124
-2.05462
-1.72529
-1.39857
-1.08075
-0.775954
-0.484435
-0.202035
0.0787212
0.366729
0.669541
0.991465
1.33246
1.68855
2.05334
2.42082
2.78768
3.1534
3.5186
3.88227
4.24015
4.58504
4.90948
5.20895
5.48345
5.7376
5.97864
6.21335
6.44415
6.6673
6.87377
7.05351
7.20034
7.31436
7.40225
7.47447
7.54099
7.60584
7.66458
7.70551
7.71564
7.68748
7.62247
7.53126
7.43011
7.33502
7.25434
7.18496
7.11303
7.02042
6.89175
6.71691
6.49119
-6.46894
-6.55631
-6.59943
-6.63492
-6.71031
-6.86807
-7.12801
-7.48506
-7.90815
-8.34996
-8.75533
-9.08054
-9.30032
-9.41429
-9.44267
-9.42031
-9.37877
-9.3304
-9.2683
-9.17148
-9.01966
-8.80016
-8.51407
-8.17456
-7.80388
-7.42229
-7.03833
-6.64973
-6.24784
-5.82805
-5.39413
-4.95929
-4.53872
-4.14148
-3.76861
-3.41262
-3.06134
-2.70182
-2.3279
-1.94272
-1.55855
-1.18986
-0.845719
-0.527652
-0.22831
0.0657814
0.371531
0.702577
1.06663
1.46281
1.88283
2.31303
2.74137
3.16358
3.58241
4.00429
4.43123
4.85743
5.26858
5.64906
5.99002
6.29158
6.56392
6.82282
7.0848
7.35654
7.63141
7.8894
8.10801
8.27423
8.38785
8.46307
8.52222
8.58887
8.67307
8.7664
8.84197
8.86959
8.83249
8.7318
8.58878
8.43634
8.3099
8.22788
8.1849
8.15092
8.08909
7.97383
7.79141
7.53831
-7.43894
-7.45626
-7.39413
-7.30307
-7.27539
-7.39962
-7.70804
-8.19587
-8.80419
-9.45343
-10.0358
-10.4797
-10.7409
-10.8281
-10.782
-10.6833
-10.6037
-10.5609
-10.5356
-10.4722
-10.329
-10.0773
-9.72042
-9.28217
-8.81206
-8.35416
-7.91801
-7.4912
-7.04223
-6.55569
-6.03427
-5.50838
-5.01298
-4.56387
-4.16322
-3.79347
-3.43039
-3.04256
-2.61692
-2.15827
-1.69589
-1.26331
-0.877706
-0.543721
-0.246885
0.0361344
0.339922
0.688024
1.09542
1.5586
2.06216
2.57508
3.07035
3.54389
4.00653
4.48217
4.9807
5.49574
5.99561
6.44479
6.82701
7.14091
7.40864
7.66161
7.94112
8.2633
8.61865
8.9605
9.23663
9.42251
9.51521
9.54557
9.55769
9.60995
9.72557
9.8922
10.0458
10.1151
10.0674
9.9004
9.6582
9.40344
9.21915
9.14354
9.17023
9.22729
9.23312
9.15104
8.96616
8.68887
-8.58427
-8.46974
-8.22958
-7.879
-7.6207
-7.66466
-8.02822
-8.73144
-9.63952
-10.6513
-11.5138
-12.1399
-12.4302
-12.4317
-12.1953
-11.9168
-11.7737
-11.7645
-11.8557
-11.8859
-11.7931
-11.504
-11.0423
-10.434
-9.80102
-9.25311
-8.78275
-8.36311
-7.88934
-7.33219
-6.67951
-6.01231
-5.41936
-4.91537
-4.51231
-4.16374
-3.83416
-3.43691
-2.95272
-2.37848
-1.78969
-1.26858
-0.834922
-0.505967
-0.245317
-0.023262
0.244581
0.588075
1.0438
1.59607
2.22776
2.86215
3.43017
3.93933
4.41125
4.92639
5.50559
6.15507
6.79468
7.33594
7.76128
8.05549
8.27331
8.4608
8.73455
9.12077
9.62372
10.1245
10.4934
10.7031
10.7304
10.6523
10.5332
10.5376
10.7024
11.0345
11.3689
11.5266
11.4717
11.1749
10.7433
10.2666
9.96951
9.90949
10.1095
10.3751
10.5014
10.4741
10.2718
9.98594
-10.0468
-9.66305
-9.2232
-8.32153
-7.53077
-7.46993
-7.85991
-8.97272
-10.3262
-12.0647
-13.3331
-14.2845
-14.5361
-14.3788
-13.6701
-12.9562
-12.7518
-12.8241
-13.2648
-13.4774
-13.5407
-13.1802
-12.5759
-11.6222
-10.6683
-10.0412
-9.57523
-9.31373
-8.85729
-8.24702
-7.34632
-6.40997
-5.69823
-5.12208
-4.78351
-4.50724
-4.33595
-3.95699
-3.41865
-2.62005
-1.78634
-1.14819
-0.64161
-0.370109
-0.188438
-0.148851
0.0400786
0.326325
0.853087
1.51913
2.38956
3.24495
3.87494
4.38862
4.75395
5.27859
5.92955
6.82896
7.73579
8.39451
8.88486
9.08057
9.18214
9.13626
9.36654
9.8107
10.6325
11.4792
11.9802
12.2471
12.098
11.8188
11.3318
11.2351
11.4392
12.1741
12.9476
13.2449
13.2256
12.6443
11.8944
10.8723
10.3794
10.3021
10.9551
11.7244
11.9921
12.0499
11.6991
11.5013
-12.1432
-10.9367
-10.8817
-8.60398
-6.38914
-6.62543
-6.65026
-8.867
-10.4582
-14.1548
-15.6082
-17.4367
-17.2303
-17.1197
-15.1518
-13.2618
-13.3312
-13.3531
-15.002
-15.2838
-15.8983
-15.2074
-14.6127
-12.8104
-11.0649
-10.597
-10.0732
-10.5449
-10.0467
-9.57993
-8.06441
-6.4841
-5.78176
-4.98661
-4.96492
-4.6995
-5.13672
-4.70657
-4.25929
-2.91219
-1.50138
-0.838336
-0.109769
-0.10487
0.073031
-0.489526
-0.304634
-0.281846
0.46168
1.14778
2.5729
3.95224
4.48707
5.05147
4.8672
5.44879
5.99564
7.49207
9.03402
9.6954
10.4326
10.2411
10.3031
9.41388
9.69029
9.95657
11.6052
13.3316
13.8036
14.3898
13.6527
13.2842
11.5681
11.4991
11.4111
13.2577
15.2117
15.4186
15.7884
14.3559
13.4373
10.7154
10.1907
9.6425
11.6332
13.7956
13.7847
14.214
12.9058
13.4103
-16.0028
-10.5523
-15.7403
-8.79529
-1.71704
-6.08433
-2.28298
-9.66078
-7.55686
-19.4738
-17.3419
-23.5176
-19.7853
-22.5335
-16.52
-10.7442
-13.9774
-11.5381
-18.7062
-16.6096
-20.1346
-17.0945
-18.3874
-13.9155
-9.62046
-11.2324
-9.13631
-13.1718
-11.1897
-12.422
-8.87487
-5.293
-5.99802
-3.73651
-5.49647
-3.87922
-7.1858
-5.48022
-6.39511
-3.29557
-0.139117
-0.622364
1.46453
-0.0883906
1.401
-1.90633
-0.415888
-1.92786
0.152848
-0.287907
2.82196
5.87541
5.05639
6.79201
3.87726
5.66853
4.69384
8.08905
11.5997
10.8865
13.3169
11.0357
12.7931
8.01201
10.0275
8.11077
12.4646
16.989
15.4613
18.4367
14.6752
16.6886
9.4309
11.789
8.59529
14.1851
19.9898
17.3561
20.9448
15.3255
17.5752
7.39264
10.0339
5.32512
12.0623
18.9947
14.9418
18.8782
11.5006
16.6717
-28.3627
5.15235
-38.0695
-9.17761
19.437
-17.3058
18.1824
-24.108
15.5347
-45.0228
-7.11219
-43.866
-13.008
-40.5639
-17.546
4.74668
-22.7921
4.11195
-35.7517
-9.84054
-33.8246
-12.7423
-30.4633
-14.7661
0.330211
-17.2075
0.630116
-24.4642
-7.704
-22.1469
-9.73534
2.07134
-10.486
3.30463
-10.8912
4.03142
-16.4526
-2.48057
-14.3119
-3.76095
6.46444
-4.10733
8.28035
-4.45284
9.6363
-10.2322
3.79618
-8.74767
3.47475
-6.83675
3.15223
13.3751
1.94706
15.2292
-3.88953
9.87118
-2.90084
8.51977
20.248
7.55068
22.9863
6.01458
24.6987
-3.17732
16.0272
-2.76502
13.0784
29.3612
10.6345
32.1846
7.38173
33.443
-6.55329
20.0732
-6.86903
14.8026
36.919
10.3331
39.3605
4.96337
39.6154
-14.3966
20.461
-15.4745
12.2102
40.0122
4.59417
39.8344
-7.97471
28.3205
29067.4
29017.9
28967.7
28916.8
28865.3
28813.1
28760.5
28707.4
28653.9
28600
28545.8
28491.5
28436.9
28382.2
28327.4
1.16029
1.09184
1.01715
0.937479
0.854289
0.769033
0.68302
0.597313
0.512687
0.429621
0.348327
0.268781
0.190776
0.113964
0.0379033
1.94162
1.82652
1.70063
1.56626
1.42602
1.28249
1.13797
0.994278
0.852713
0.714047
0.578588
0.446246
0.316624
0.189097
0.0628837
2.73525
2.57185
2.39247
2.2008
2.00092
1.79683
1.59198
1.38901
1.18975
0.995195
0.805678
0.620954
0.440355
0.262901
0.0874119
3.54746
3.33311
3.09657
2.84347
2.57996
2.31185
2.04399
1.77993
1.52196
1.27122
1.02791
0.791491
0.560907
0.334723
0.111267
4.38595
4.11655
3.81721
3.4965
3.16353
2.82654
2.49207
2.16462
1.84682
1.53971
1.24315
0.956128
0.677015
0.403792
0.134191
5.2609
4.93009
4.55937
4.16192
3.75121
3.33875
2.93309
2.53957
2.16085
1.79752
1.44875
1.11277
0.787175
0.469206
0.155883
6.18588
5.78376
5.32843
4.84076
4.34082
3.84437
3.36207
2.89972
2.45939
2.04063
1.64144
1.25892
0.889639
0.529933
0.176002
7.1797
6.69044
6.1297
5.5318
4.92692
4.33602
3.7713
3.23793
2.73632
2.26407
1.81736
1.39172
0.982453
0.584835
0.194175
8.27038
7.66756
6.96729
6.22908
5.49845
4.80134
4.14931
3.54453
2.98392
2.46192
1.97211
1.50804
1.06354
0.632728
0.210017
9.50575
8.7407
7.84167
6.91777
6.03517
5.22082
4.47983
3.80697
3.19295
2.62753
2.10102
1.60471
1.13085
0.672472
0.223162
10.9832
9.94847
8.74135
7.56573
6.50308
5.56616
4.74179
4.01046
3.35331
2.75415
2.19965
1.67885
1.18261
0.703099
0.233304
12.9301
11.3285
9.60901
8.1014
6.84535
5.79862
4.91044
4.13961
3.45558
2.83604
2.26448
1.72832
1.21757
0.723954
0.24024
15.9528
12.8255
10.2634
8.38487
6.97785
5.87215
4.96155
4.18186
3.49326
2.86983
2.2938
1.75226
1.23531
0.734855
0.243916
21.3186
13.7564
10.2342
8.19653
6.80835
5.75012
4.88153
4.13293
3.46568
2.85612
2.28849
1.75151
1.23645
0.736181
0.244462
-0.256106
-0.771022
-1.29417
-1.83149
-2.38963
-2.97648
-3.60188
-4.27886
-5.02595
-5.87157
-6.86373
-8.0928
-9.75087
-12.3
-16.9661
-0.254434
-0.765662
-1.28405
-1.81464
-2.36288
-2.93483
-3.5375
-4.17908
-4.8693
-5.61946
-6.44073
-7.33434
-8.24338
-8.82833
-7.41818
-0.251105
-0.755284
-1.2654
-1.78546
-2.31955
-2.87177
-3.44602
-4.04541
-4.67088
-5.3177
-5.96717
-6.56494
-6.96089
-6.74113
-4.80359
-0.246392
-0.740739
-1.23975
-1.74643
-2.26354
-2.79333
-3.337
-3.89356
-4.45742
-5.01374
-5.52924
-5.93577
-6.10565
-5.84646
-5.1242
-0.240577
-0.722909
-1.20871
-1.70007
-2.19861
-2.70516
-3.21899
-3.73655
-4.24899
-4.7377
-5.16662
-5.47116
-5.54758
-5.2733
-4.75327
-0.23393
-0.702626
-1.17375
-1.64862
-2.12803
-2.61185
-3.09834
-3.58306
-4.0569
-4.50273
-4.88993
-5.16526
-5.23239
-4.8706
-3.31611
-0.226688
-0.680614
-1.13611
-1.59392
-2.05429
-2.51658
-2.97885
-3.4371
-3.88415
-4.30812
-4.69041
-5.00406
-5.21459
-5.29591
-5.40498
-0.219047
-0.657467
-1.09679
-1.53736
-1.97908
-2.42121
-2.86209
-3.29888
-3.72738
-4.1422
-4.5381
-4.91443
-5.28616
-5.7017
-6.23487
-0.211165
-0.633651
-1.05654
-1.4799
-1.90348
-2.32659
-2.74806
-3.16636
-3.58006
-3.98924
-4.39903
-4.82785
-5.327
-6.02551
-7.25287
-0.203163
-0.609517
-1.01591
-1.42221
-1.8281
-2.23298
-2.63613
-3.03695
-3.43579
-3.83573
-4.24645
-4.69226
-5.22912
-5.98175
-7.25093
-0.19513
-0.585322
-0.975278
-1.36474
-1.75331
-2.14047
-2.5257
-2.90881
-3.29066
-3.67461
-4.06926
-4.49324
-4.98115
-5.579
-6.25539
-0.187133
-0.561259
-0.934941
-1.30781
-1.6794
-2.04918
-2.41663
-2.78144
-3.14396
-3.50589
-3.87152
-4.24964
-4.65659
-5.12144
-5.71505
-0.179224
-0.537476
-0.895122
-1.2517
-1.60667
-1.95943
-2.30928
-2.65555
-2.99755
-3.33446
-3.6649
-3.98586
-4.29157
-4.57425
-4.82199
-0.171441
-0.514085
-0.855999
-1.19665
-1.53541
-1.87159
-2.20433
-2.53252
-2.85454
-3.16736
-3.46466
-3.73254
-3.94233
-4.0511
-4.12602
-0.163815
-0.491175
-0.817714
-1.14284
-1.46588
-1.78606
-2.10243
-2.4137
-2.7178
-3.01088
-3.28466
-3.51945
-3.66304
-3.55127
-2.54052
-0.156367
-0.46881
-0.780371
-1.09042
-1.39826
-1.7031
-2.00401
-2.29976
-2.58861
-2.86767
-3.13156
-3.36959
-3.56087
-3.67557
-3.78151
-0.149113
-0.447036
-0.74404
-1.03948
-1.33266
-1.62281
-1.90908
-2.19053
-2.46613
-2.73486
-2.99625
-3.25207
-3.51172
-3.80583
-4.20464
-0.142062
-0.425877
-0.70876
-0.990062
-1.2691
-1.54514
-1.81744
-2.0853
-2.34833
-2.60703
-2.86465
-3.13179
-3.43848
-3.8632
-4.60098
-0.135218
-0.405346
-0.674545
-0.942172
-1.20756
-1.47
-1.7288
-1.98336
-2.23344
-2.47985
-2.72629
-2.98395
-3.28313
-3.70304
-4.45988
-0.128582
-0.385442
-0.64139
-0.895797
-1.14801
-1.39733
-1.64305
-1.88447
-2.12103
-2.35255
-2.58002
-2.80716
-3.0438
-3.30876
-3.59863
-0.122149
-0.366155
-0.609278
-0.850909
-1.09041
-1.3271
-1.56022
-1.7889
-2.01203
-2.22798
-2.43386
-2.6237
-2.78468
-2.89705
-3.01451
-0.115915
-0.347465
-0.578174
-0.807462
-1.03472
-1.2593
-1.48042
-1.69713
-1.90796
-2.11032
-2.29875
-2.4602
-2.5592
-2.48172
-1.7765
-0.109869
-0.329345
-0.548031
-0.76539
-0.980862
-1.19384
-1.40365
-1.60938
-1.80971
-2.00225
-2.18228
-2.34002
-2.45617
-2.50223
-2.51605
-0.104001
-0.311759
-0.518788
-0.724597
-0.92869
-1.13056
-1.32965
-1.52534
-1.7168
-1.90279
-2.08119
-2.24867
-2.40172
-2.54507
-2.72622
-0.098297
-0.294668
-0.490371
-0.684968
-0.87803
-1.06915
-1.25797
-1.44419
-1.62766
-1.80852
-1.98759
-2.1673
-2.35393
-2.56158
-2.81512
-0.0927443
-0.278028
-0.462704
-0.646377
-0.828685
-1.00931
-1.18805
-1.36491
-1.54028
-1.71545
-1.89348
-2.08105
-2.29147
-2.54615
-2.8568
-0.0873298
-0.261801
-0.435714
-0.608712
-0.780476
-0.950752
-1.11942
-1.28661
-1.45301
-1.62035
-1.79268
-1.97889
-2.19822
-2.49179
-2.94879
-0.0820427
-0.245953
-0.409343
-0.571883
-0.733274
-0.893279
-1.05177
-1.20885
-1.36504
-1.52173
-1.68217
-1.8537
-2.05336
-2.32387
-2.79067
-0.0768742
-0.230458
-0.383549
-0.535832
-0.687011
-0.836826
-0.985079
-1.13167
-1.27668
-1.42047
-1.56392
-1.70894
-1.85923
-2.0196
-2.16966
-0.0718178
-0.215296
-0.358303
-0.50053
-0.641673
-0.781434
-0.919512
-1.05557
-1.18914
-1.31939
-1.44455
-1.56049
-1.65805
-1.72245
-1.78012
-0.0668683
-0.200454
-0.333587
-0.465964
-0.597275
-0.72719
-0.855325
-0.981165
-1.10387
-1.22182
-1.33154
-1.42477
-1.47987
-1.42995
-1.01686
-0.0620213
-0.18592
-0.309386
-0.432125
-0.553829
-0.674161
-0.792712
-0.908918
-1.02188
-1.12995
-1.22994
-1.31551
-1.37458
-1.38961
-1.37903
-0.0572724
-0.171681
-0.28568
-0.398991
-0.511321
-0.622351
-0.731708
-0.838908
-0.943255
-1.04365
-1.13834
-1.22464
-1.29984
-1.36705
-1.45947
-0.0526161
-0.157721
-0.262444
-0.366526
-0.469701
-0.571688
-0.672186
-0.770863
-0.867358
-0.961308
-1.05252
-1.14146
-1.23064
-1.32695
-1.44145
-0.0480464
-0.144022
-0.239646
-0.334682
-0.428893
-0.522043
-0.613911
-0.704319
-0.793211
-0.880848
-0.968246
-1.05811
-1.15646
-1.27421
-1.42249
-0.0435567
-0.130563
-0.217249
-0.303401
-0.388809
-0.473276
-0.556638
-0.638813
-0.719922
-0.800537
-0.882246
-0.968842
-1.06881
-1.20024
-1.39972
-0.0391401
-0.117323
-0.195217
-0.272628
-0.349369
-0.425266
-0.500175
-0.574036
-0.646962
-0.719452
-0.792837
-0.870282
-0.959277
-1.07902
-1.28922
-0.0347894
-0.104282
-0.173514
-0.242313
-0.310507
-0.377929
-0.444429
-0.509896
-0.574293
-0.637733
-0.700594
-0.763692
-0.828385
-0.894972
-0.944941
-0.0304979
-0.0914173
-0.152107
-0.212412
-0.272172
-0.331222
-0.389391
-0.446487
-0.502277
-0.556404
-0.608173
-0.655985
-0.696166
-0.722458
-0.744777
-0.0262584
-0.0787097
-0.130963
-0.182882
-0.234321
-0.28512
-0.335088
-0.383976
-0.431405
-0.476702
-0.518488
-0.553569
-0.573583
-0.552695
-0.39152
-0.0220636
-0.0661369
-0.110047
-0.15368
-0.196909
-0.239586
-0.281526
-0.322468
-0.362003
-0.399428
-0.433449
-0.461609
-0.479396
-0.480347
-0.47011
-0.0179053
-0.0536749
-0.0893205
-0.124753
-0.159872
-0.194557
-0.22865
-0.261929
-0.294058
-0.324509
-0.352469
-0.376843
-0.396892
-0.415762
-0.45536
-0.0137745
-0.0412969
-0.068738
-0.0960386
-0.123131
-0.149931
-0.176331
-0.202181
-0.227269
-0.25131
-0.273971
-0.295072
-0.315199
-0.336775
-0.361387
-0.00966161
-0.0289733
-0.0482497
-0.0674643
-0.0865862
-0.105577
-0.124387
-0.142953
-0.1612
-0.17906
-0.196547
-0.213968
-0.232492
-0.25567
-0.295464
-0.005556
-0.0166722
-0.0278008
-0.0389498
-0.0501271
-0.0613412
-0.0726043
-0.0839388
-0.0953911
-0.107061
-0.119157
-0.132089
-0.146542
-0.163017
-0.176572
-0.00144681
-0.00436041
-0.00733451
-0.0104113
-0.0136368
-0.0170651
-0.0207653
-0.0248352
-0.0294227
-0.0347567
-0.0411781
-0.0491426
-0.059177
-0.0723827
-0.0975776
0.00267691
0.00799528
0.0132063
0.0182349
0.0229996
0.0274062
0.0313376
0.0346356
0.0370725
0.0383126
0.0378832
0.0352515
0.0304013
0.0265899
0.0431496
0.00682591
0.0204274
0.0338769
0.0470687
0.05989
0.0722137
0.0838872
0.0947119
0.104407
0.112551
0.118485
0.121197
0.11927
0.111428
0.100684
0.0110105
0.0329671
0.0547294
0.0761642
0.0971314
0.117479
0.137033
0.15558
0.172829
0.188335
0.201336
0.210375
0.212261
0.198295
0.135971
0.0152404
0.0456435
0.0758126
0.105589
0.134808
0.163301
0.190885
0.217357
0.24247
0.265869
0.286951
0.304531
0.316275
0.318758
0.316836
0.0195249
0.0584844
0.0971717
0.135404
0.172995
0.209761
0.245516
0.280086
0.313309
0.345024
0.375011
0.402752
0.426736
0.442294
0.431633
0.0238729
0.071516
0.11885
0.165668
0.211761
0.256927
0.300976
0.343758
0.385203
0.425392
0.464647
0.503595
0.543066
0.584057
0.633739
0.0282929
0.0847639
0.14089
0.196439
0.251177
0.304875
0.357323
0.408367
0.457979
0.506419
0.554511
0.604092
0.658359
0.719806
0.770759
0.0327931
0.0982532
0.163334
0.227777
0.29132
0.353697
0.414653
0.473975
0.531578
0.587702
0.643356
0.701351
0.768686
0.862867
1.03389
0.0373814
0.112008
0.186223
0.259744
0.332276
0.403511
0.473123
0.540784
0.606215
0.669322
0.730593
0.79214
0.860391
0.952593
1.10938
0.0420649
0.12605
0.209596
0.292401
0.374139
0.454458
0.532952
0.609149
0.682473
0.752229
0.817654
0.87829
0.935485
0.997493
1.09221
0.0468495
0.140397
0.233488
0.325801
0.416992
0.506675
0.594383
0.679516
0.761219
0.838156
0.908058
0.966843
1.00726
1.0197
1.02191
0.0517397
0.155064
0.257921
0.359983
0.460897
0.560267
0.657606
0.752269
0.843281
0.928982
1.0062
1.06816
1.09848
1.04904
0.736582
0.0567375
0.170057
0.282907
0.394963
0.505879
0.615272
0.722692
0.827562
0.929037
1.02571
1.11494
1.19147
1.24512
1.26104
1.25732
0.0618436
0.185377
0.308447
0.430737
0.55192
0.671648
0.789552
0.905214
1.01813
1.12762
1.23252
1.33069
1.41797
1.48672
1.51747
0.0670565
0.201019
0.334529
0.467282
0.598972
0.729294
0.857969
0.984772
1.10962
1.23272
1.3548
1.47748
1.6037
1.7388
1.90232
0.0723739
0.216975
0.361137
0.504566
0.646973
0.788085
0.927685
1.06569
1.20233
1.33853
1.47666
1.62183
1.78328
1.97116
2.15689
0.0777929
0.233237
0.388254
0.542559
0.695872
0.847925
0.998508
1.14755
1.29533
1.443
1.59365
1.75488
1.94451
2.20505
2.65015
0.0833103
0.249793
0.415863
0.58124
0.745642
0.908785
1.0704
1.23028
1.38842
1.5454
1.7033
1.86822
2.05651
2.31079
2.73799
0.0889226
0.266636
0.443951
0.620595
0.796283
0.9707
1.14349
1.31421
1.48232
1.64715
1.80809
1.96532
2.1227
2.29645
2.52995
0.0946259
0.283752
0.472501
0.66061
0.8478
1.03374
1.218
1.39995
1.57848
1.75161
1.91545
2.06231
2.17752
2.24064
2.29099
0.100415
0.301129
0.50149
0.701258
0.900175
1.09794
1.29412
1.48804
1.67839
1.86251
2.0346
2.18128
2.26851
2.19369
1.56201
0.106285
0.318747
0.530885
0.742488
0.953343
1.16322
1.3718
1.57859
1.78261
1.98175
2.17139
2.34152
2.47205
2.53343
2.56384
0.112228
0.336584
0.560644
0.784229
1.00718
1.22938
1.45071
1.67106
1.89021
2.10758
2.3217
2.52923
2.7236
2.89467
3.0233
0.118239
0.354622
0.590726
0.826396
1.06153
1.29612
1.53027
1.76434
1.99901
2.23563
2.47657
2.72606
2.99131
3.28537
3.64674
0.124315
0.372848
0.621097
0.86892
1.11624
1.36313
1.60987
1.85716
2.10645
2.36065
2.62549
2.91192
3.23898
3.62931
4.04449
0.130457
0.391262
0.651754
0.911772
1.17124
1.43023
1.68907
1.94857
2.21044
2.47824
2.75937
3.06951
3.44267
3.95594
4.80636
0.136671
0.409884
0.682725
0.954988
1.22654
1.4974
1.76777
2.03829
2.31028
2.58654
2.87306
3.1833
3.54901
4.0484
4.8803
0.142971
0.428756
0.714081
0.998672
1.28231
1.56487
1.84635
2.12694
2.4071
2.68766
2.97024
3.25852
3.56247
3.90988
4.35616
0.149376
0.447936
0.745929
1.04299
1.33879
1.63305
1.9255
2.21586
2.5036
2.78732
3.06339
3.32279
3.5457
3.70263
3.86377
0.15591
0.467499
0.778401
1.08816
1.39632
1.70244
2.00605
2.30655
2.60282
2.89223
3.16804
3.41234
3.57465
3.4924
2.52127
0.162598
0.487526
0.811645
1.1344
1.45522
1.77353
2.08872
2.40012
2.70674
3.00651
3.2945
3.55876
3.77335
3.89937
4.00607
0.169467
0.508099
0.845811
1.18195
1.51583
1.84673
2.17396
2.49696
2.81534
3.1289
3.43734
3.73958
4.03345
4.31965
4.6117
0.17654
0.529293
0.881039
1.23104
1.57846
1.92242
2.26209
2.59694
2.92721
3.25474
3.58437
3.92613
4.29875
4.73576
5.30801
0.183834
0.551167
0.917452
1.28187
1.64343
2.00102
2.35349
2.70002
3.0409
3.37903
3.72286
4.09112
4.5192
5.05779
5.70445
0.191355
0.573748
0.955129
1.33463
1.71111
2.08312
2.44895
2.80695
3.15639
3.49927
3.84425
4.21443
4.66276
5.30462
6.40324
0.199089
0.597009
0.994074
1.38943
1.78183
2.16943
2.54975
2.91974
3.27633
3.61791
3.948
4.28334
4.67176
5.23406
6.28406
0.206993
0.62084
1.03416
1.44624
1.85581
2.26071
2.65763
3.04175
3.40659
3.7444
4.04794
4.31523
4.55983
4.82461
5.1476
0.214986
0.645008
1.07506
1.50474
1.93294
2.35745
2.77431
3.17703
3.55549
3.89456
4.1729
4.36274
4.4337
4.37452
4.34129
0.222934
0.669126
1.11617
1.56419
2.01257
2.4594
2.9007
3.32907
3.73163
4.08675
4.35914
4.49266
4.39775
3.90621
2.49786
0.230646
0.692622
1.15654
1.62332
2.09318
2.56511
3.03597
3.49892
3.94059
4.33625
4.64164
4.78104
4.63701
4.07437
3.14551
0.237872
0.714734
1.19488
1.68024
2.17226
2.67145
3.17664
3.68344
4.18139
4.6483
5.03922
5.26609
5.16671
4.49663
3.18427
0.244309
0.734528
1.22954
1.73246
2.24626
2.77353
3.31609
3.87401
4.44364
5.01295
5.55051
5.9775
6.09244
5.36465
2.40157
0.24962
0.750957
1.25864
1.77704
2.3108
2.86489
3.44476
4.05635
4.70601
5.39949
6.13836
6.90534
7.60307
7.78473
5.41837
0.253461
0.762942
1.28022
1.81087
2.36111
2.93824
3.55129
4.21219
4.93787
5.7544
6.70646
7.88085
9.47153
11.9745
16.8391
16.3403
11.4327
8.99556
7.48171
6.37407
5.47716
4.70624
4.01904
3.39141
2.80788
2.25754
1.73211
1.22488
0.730097
0.242571
4.5477
7.12499
7.09252
6.50108
5.81072
5.12939
4.48127
3.86907
3.28961
2.73823
2.21003
1.70033
1.20469
0.718915
0.238993
1.31592
4.62934
5.57737
5.58891
5.24084
4.75833
4.23121
3.69624
3.16822
2.65237
2.14959
1.6587
1.17758
0.703633
0.234057
1.64537
3.77614
4.71228
4.92619
4.76407
4.41804
3.98648
3.51849
3.03827
2.55735
2.08078
1.6102
1.14542
0.685281
0.228091
2.78021
3.75234
4.34846
4.52437
4.41476
4.13697
3.7669
3.34913
2.9087
2.45921
2.00773
1.5576
1.10999
0.664843
0.221413
3.39247
3.98942
4.27618
4.32061
4.18204
3.91979
3.58031
3.19541
2.78532
2.36236
1.93366
1.50317
1.07278
0.64318
0.2143
4.59301
4.44163
4.37192
4.24375
4.03498
3.75606
3.42514
3.05907
2.67079
2.26938
1.86075
1.44859
1.03498
0.620981
0.206981
5.2091
4.83684
4.50803
4.22267
3.93646
3.62828
3.29425
2.93803
2.56529
2.18131
1.79022
1.39495
0.997403
0.598749
0.199625
6.2498
5.2016
4.61374
4.20198
3.853
3.51828
3.17864
2.82836
2.4675
2.09809
1.72251
1.34281
0.960547
0.576815
0.192346
6.33625
5.24642
4.59694
4.13752
3.75946
3.41156
3.07028
2.72594
2.37555
2.01907
1.65758
1.29239
0.924667
0.555365
0.185211
5.61742
4.98518
4.44798
4.01638
3.64481
3.30009
2.96393
2.62763
2.28774
1.94346
1.59516
1.24367
0.889843
0.534481
0.178253
5.21619
4.65773
4.22549
3.85339
3.51136
3.18254
2.85758
2.53173
2.2029
1.87055
1.53489
1.19651
0.856049
0.514175
0.171481
4.52407
4.24245
3.96107
3.66936
3.3686
3.06218
2.75176
2.43779
2.12042
1.79986
1.47646
1.15073
0.823204
0.494415
0.164887
3.92752
3.82684
3.70368
3.49149
3.22964
2.9445
2.6483
2.34615
2.0401
1.73107
1.4196
1.10617
0.7912
0.47515
0.158455
2.47238
3.42672
3.50798
3.34798
3.10674
2.83438
2.54889
2.25714
1.96178
1.6639