/*--------------------------------*- C++ -*----------------------------------*\
| =========                 |                                                 |
| \\      /  F ield         | OpenFOAM: The Open Source CFD Toolbox           |
|  \\    /   O peration     | Version:  5.x                                   |
|   \\  /    A nd           | Web:      www.OpenFOAM.org                      |
|    \\/     M anipulation  |                                                 |
\*---------------------------------------------------------------------------*/
FoamFile
{
    version     2.0;
    format      ascii;
    class       volScalarField;
    location    "1.3";
    object      T;
}
// * * * * * * * * * * * * * * * * * * * * * * * * * * * * * * * * * * * * * //

dimensions      [0 0 0 1 0 0 0];

internalField   nonuniform List<scalar> 
6300
(
322.73
322.19
321.651
321.113
320.576
320.042
319.511
318.983
318.459
317.939
317.423
316.913
316.409
315.911
315.42
322.73
322.189
321.649
321.111
320.574
320.04
319.508
318.979
318.454
317.934
317.418
316.908
316.403
315.905
315.413
322.729
322.188
321.647
321.108
320.57
320.034
319.501
318.972
318.446
317.924
317.408
316.896
316.391
315.892
315.399
322.728
322.186
321.643
321.102
320.563
320.026
319.492
318.961
318.433
317.91
317.392
316.879
316.373
315.872
315.378
322.727
322.183
321.639
321.096
320.554
320.015
319.479
318.946
318.416
317.891
317.371
316.857
316.348
315.846
315.351
322.726
322.179
321.633
321.087
320.544
320.002
319.463
318.927
318.395
317.868
317.345
316.828
316.317
315.813
315.316
322.725
322.175
321.626
321.077
320.531
319.986
319.444
318.905
318.37
317.839
317.313
316.793
316.279
315.773
315.274
322.723
322.17
321.617
321.066
320.516
319.967
319.422
318.879
318.34
317.805
317.276
316.752
316.235
315.725
315.223
322.721
322.164
321.608
321.053
320.499
319.946
319.397
318.85
318.306
317.767
317.232
316.704
316.183
315.67
315.165
322.719
322.158
321.598
321.038
320.48
319.923
319.369
318.817
318.268
317.723
317.183
316.649
316.123
315.605
315.098
322.717
322.152
321.587
321.023
320.46
319.898
319.338
318.78
318.226
317.675
317.128
316.587
316.054
315.531
315.019
322.715
322.145
321.575
321.006
320.438
319.871
319.305
318.742
318.18
317.622
317.067
316.518
315.976
315.445
314.928
322.713
322.138
321.563
320.989
320.415
319.843
319.271
318.7
318.132
317.565
317.001
316.441
315.888
315.345
314.82
322.71
322.13
321.55
320.971
320.392
319.813
319.235
318.658
318.081
317.505
316.931
316.358
315.789
315.228
314.686
322.707
322.122
321.538
320.953
320.368
319.783
319.199
318.614
318.03
317.445
316.859
316.272
315.682
315.092
314.51
314.976
314.577
314.183
313.795
313.413
313.036
312.666
312.301
311.943
311.591
311.246
310.908
310.577
310.253
309.936
309.626
309.324
309.028
308.74
308.459
308.186
307.919
307.658
307.405
307.157
306.916
306.681
306.451
306.227
306.007
305.793
305.582
305.376
305.174
304.975
304.78
304.587
304.397
304.209
304.023
303.839
303.656
303.474
303.293
303.112
302.931
302.751
302.57
302.388
302.205
302.021
301.835
301.647
301.457
301.264
301.068
300.869
300.667
300.46
300.25
300.035
299.815
299.59
299.36
299.125
298.884
298.637
298.384
298.125
297.859
297.587
297.308
297.022
296.73
296.431
296.124
295.811
295.491
295.163
294.829
294.488
294.14
293.785
293.423
293.054
292.679
292.298
291.91
291.516
291.116
314.968
314.569
314.176
313.787
313.405
313.028
312.657
312.292
311.934
311.582
311.237
310.898
310.567
310.243
309.926
309.616
309.313
309.018
308.73
308.449
308.176
307.909
307.649
307.396
307.149
306.908
306.673
306.443
306.219
306
305.786
305.577
305.371
305.169
304.971
304.776
304.583
304.394
304.206
304.021
303.837
303.654
303.473
303.292
303.112
302.932
302.751
302.571
302.389
302.207
302.023
301.838
301.65
301.461
301.268
301.073
300.874
300.672
300.466
300.256
300.041
299.822
299.598
299.368
299.133
298.892
298.645
298.393
298.134
297.868
297.596
297.317
297.032
296.74
296.44
296.134
295.821
295.501
295.173
294.839
294.498
294.149
293.794
293.432
293.064
292.688
292.307
291.919
291.524
291.124
314.954
314.555
314.16
313.772
313.388
313.011
312.64
312.274
311.915
311.563
311.217
310.879
310.547
310.222
309.905
309.595
309.293
308.998
308.71
308.429
308.156
307.89
307.63
307.377
307.131
306.891
306.657
306.428
306.205
305.987
305.774
305.565
305.36
305.159
304.962
304.767
304.576
304.387
304.2
304.016
303.833
303.651
303.47
303.291
303.111
302.932
302.752
302.573
302.392
302.211
302.028
301.843
301.657
301.468
301.277
301.082
300.884
300.683
300.478
300.269
300.055
299.836
299.612
299.384
299.149
298.909
298.663
298.41
298.152
297.887
297.615
297.337
297.051
296.759
296.46
296.154
295.841
295.52
295.193
294.859
294.517
294.169
293.813
293.451
293.082
292.707
292.325
291.936
291.541
291.141
314.932
314.532
314.137
313.748
313.364
312.986
312.613
312.247
311.888
311.535
311.188
310.849
310.517
310.192
309.874
309.564
309.262
308.967
308.679
308.399
308.126
307.861
307.602
307.35
307.105
306.866
306.633
306.405
306.184
305.967
305.755
305.547
305.344
305.144
304.948
304.755
304.565
304.377
304.192
304.009
303.827
303.647
303.467
303.289
303.11
302.932
302.754
302.576
302.396
302.216
302.035
301.852
301.666
301.479
301.289
301.096
300.9
300.7
300.496
300.288
300.075
299.857
299.635
299.407
299.173
298.934
298.689
298.437
298.179
297.915
297.643
297.365
297.081
296.789
296.49
296.184
295.871
295.55
295.223
294.888
294.547
294.198
293.842
293.48
293.11
292.734
292.351
291.962
291.567
291.165
314.904
314.502
314.106
313.716
313.331
312.952
312.579
312.211
311.851
311.496
311.149
310.809
310.476
310.15
309.833
309.522
309.22
308.925
308.638
308.359
308.087
307.822
307.564
307.314
307.07
306.832
306.601
306.375
306.155
305.94
305.73
305.524
305.322
305.124
304.93
304.739
304.551
304.365
304.181
303.999
303.819
303.641
303.463
303.286
303.109
302.933
302.757
302.58
302.402
302.224
302.044
301.863
301.679
301.494
301.306
301.114
300.92
300.722
300.52
300.313
300.102
299.886
299.665
299.438
299.206
298.967
298.723
298.473
298.216
297.952
297.681
297.404
297.12
296.828
296.529
296.224
295.911
295.59
295.263
294.928
294.586
294.237
293.881
293.518
293.148
292.771
292.388
291.997
291.601
291.198
314.867
314.465
314.068
313.676
313.29
312.91
312.535
312.167
311.804
311.449
311.1
310.758
310.424
310.098
309.78
309.47
309.167
308.873
308.586
308.307
308.036
307.773
307.517
307.268
307.025
306.79
306.56
306.337
306.119
305.906
305.698
305.495
305.295
305.1
304.908
304.719
304.532
304.349
304.167
303.988
303.81
303.633
303.457
303.283
303.108
302.934
302.759
302.585
302.409
302.233
302.056
301.877
301.696
301.512
301.327
301.138
300.945
300.749
300.549
300.345
300.136
299.922
299.702
299.477
299.246
299.01
298.767
298.517
298.261
297.999
297.729
297.452
297.169
296.878
296.579
296.274
295.961
295.641
295.313
294.978
294.636
294.286
293.929
293.566
293.195
292.817
292.433
292.042
291.644
291.239
314.823
314.419
314.021
313.628
313.241
312.859
312.483
312.113
311.748
311.391
311.04
310.697
310.362
310.035
309.716
309.406
309.103
308.809
308.523
308.245
307.975
307.713
307.459
307.212
306.972
306.738
306.511
306.291
306.075
305.865
305.66
305.459
305.263
305.07
304.881
304.694
304.511
304.33
304.151
303.974
303.798
303.624
303.451
303.279
303.106
302.934
302.763
302.59
302.418
302.244
302.069
301.893
301.715
301.535
301.352
301.166
300.976
300.783
300.586
300.384
300.177
299.965
299.747
299.524
299.296
299.061
298.819
298.572
298.317
298.055
297.787
297.511
297.228
296.937
296.64
296.334
296.022
295.701
295.374
295.038
294.695
294.345
293.988
293.623
293.252
292.873
292.488
292.096
291.696
291.29
314.771
314.366
313.967
313.573
313.185
312.801
312.423
312.05
311.683
311.323
310.97
310.625
310.288
309.96
309.641
309.33
309.028
308.734
308.449
308.172
307.903
307.643
307.39
307.146
306.908
306.678
306.454
306.236
306.024
305.817
305.616
305.418
305.225
305.036
304.849
304.666
304.485
304.307
304.132
303.958
303.785
303.614
303.444
303.274
303.105
302.935
302.766
302.597
302.427
302.257
302.085
301.912
301.738
301.561
301.381
301.198
301.012
300.822
300.628
300.429
300.225
300.016
299.801
299.58
299.353
299.12
298.881
298.635
298.382
298.122
297.855
297.58
297.297
297.007
296.71
296.406
296.093
295.773
295.445
295.109
294.765
294.414
294.056
293.691
293.319
292.939
292.553
292.159
291.758
291.35
314.711
314.305
313.905
313.51
313.121
312.736
312.355
311.979
311.609
311.245
310.888
310.541
310.202
309.873
309.553
309.242
308.94
308.647
308.362
308.086
307.819
307.561
307.311
307.069
306.835
306.609
306.388
306.174
305.966
305.763
305.565
305.372
305.182
304.996
304.814
304.634
304.457
304.282
304.11
303.939
303.77
303.603
303.436
303.269
303.102
302.936
302.77
302.604
302.437
302.271
302.103
301.934
301.763
301.59
301.415
301.236
301.054
300.868
300.677
300.482
300.281
300.074
299.862
299.644
299.42
299.189
298.953
298.709
298.458
298.199
297.933
297.659
297.377
297.088
296.792
296.488
296.176
295.856
295.527
295.191
294.846
294.494
294.134
293.768
293.396
293.016
292.628
292.233
291.83
291.42
314.642
314.235
313.835
313.44
313.05
312.664
312.28
311.9
311.525
311.156
310.795
310.443
310.102
309.772
309.452
309.141
308.84
308.547
308.263
307.988
307.723
307.467
307.22
306.982
306.752
306.53
306.313
306.103
305.899
305.701
305.508
305.319
305.134
304.953
304.774
304.598
304.424
304.253
304.085
303.919
303.754
303.59
303.427
303.263
303.1
302.937
302.774
302.611
302.448
302.286
302.123
301.959
301.792
301.624
301.453
301.278
301.101
300.919
300.733
300.542
300.345
300.141
299.932
299.716
299.495
299.268
299.034
298.793
298.545
298.288
298.022
297.749
297.468
297.179
296.884
296.581
296.27
295.95
295.622
295.284
294.937
294.583
294.222
293.855
293.482
293.102
292.715
292.319
291.914
291.501
314.562
314.156
313.757
313.364
312.975
312.588
312.201
311.815
311.433
311.056
310.688
310.331
309.987
309.656
309.337
309.028
308.728
308.436
308.151
307.877
307.613
307.359
307.117
306.884
306.659
306.441
306.23
306.024
305.825
305.632
305.444
305.261
305.082
304.905
304.73
304.558
304.388
304.221
304.057
303.896
303.737
303.577
303.418
303.258
303.097
302.937
302.777
302.617
302.459
302.302
302.144
301.986
301.825
301.661
301.495
301.326
301.153
300.978
300.797
300.611
300.417
300.217
300.01
299.797
299.579
299.355
299.125
298.888
298.643
298.388
298.123
297.85
297.568
297.28
296.986
296.686
296.377
296.058
295.729
295.389
295.039
294.682
294.319
293.951
293.579
293.2
292.813
292.416
292.01
291.593
314.47
314.066
313.67
313.283
312.898
312.51
312.12
311.726
311.332
310.943
310.565
310.2
309.853
309.523
309.208
308.903
308.605
308.312
308.026
307.751
307.487
307.237
306.999
306.774
306.556
306.345
306.138
305.936
305.741
305.554
305.374
305.199
305.026
304.854
304.684
304.514
304.348
304.185
304.026
303.871
303.718
303.565
303.41
303.253
303.095
302.936
302.778
302.623
302.469
302.318
302.167
302.016
301.861
301.703
301.541
301.377
301.211
301.043
300.869
300.689
300.5
300.303
300.097
299.886
299.67
299.45
299.226
298.996
298.754
298.502
298.237
297.962
297.678
297.39
297.098
296.802
296.497
296.181
295.851
295.507
295.152
294.788
294.422
294.054
293.685
293.31
292.925
292.528
292.119
291.7
314.362
313.963
313.573
313.198
312.825
312.438
312.044
311.636
311.226
310.814
310.421
310.045
309.696
309.368
309.064
308.769
308.473
308.179
307.886
307.607
307.342
307.096
306.865
306.651
306.446
306.241
306.038
305.838
305.648
305.467
305.297
305.133
304.968
304.803
304.635
304.468
304.301
304.142
303.989
303.844
303.701
303.554
303.405
303.251
303.094
302.934
302.777
302.624
302.476
302.332
302.192
302.051
301.902
301.749
301.59
301.431
301.272
301.114
300.952
300.779
300.595
300.399
300.194
299.98
299.766
299.551
299.338
299.118
298.882
298.633
298.365
298.086
297.795
297.505
297.215
296.929
296.636
296.323
295.993
295.641
295.277
294.899
294.526
294.157
293.798
293.435
293.053
292.657
292.244
291.824
314.228
313.847
313.453
313.111
312.77
312.378
311.987
311.548
311.123
310.66
310.252
309.852
309.509
309.181
308.905
308.638
308.338
308.045
307.726
307.445
307.169
306.932
306.707
306.517
306.335
306.133
305.936
305.725
305.541
305.363
305.213
305.069
304.91
304.755
304.584
304.42
304.245
304.09
303.941
303.813
303.688
303.548
303.408
303.251
303.097
302.926
302.772
302.617
302.478
302.341
302.219
302.095
301.951
301.804
301.638
301.486
301.331
301.192
301.05
300.883
300.709
300.507
300.304
300.074
299.863
299.649
299.458
299.262
299.03
298.79
298.51
298.228
297.91
297.62
297.326
297.067
296.802
296.489
296.167
295.794
295.421
295.003
294.625
294.246
293.917
293.586
293.201
292.812
292.378
291.968
314.042
313.752
313.258
313.022
312.79
312.317
311.998
311.443
311.075
310.425
310.074
309.575
309.301
308.918
308.733
308.554
308.193
307.948
307.512
307.275
306.939
306.754
306.497
306.373
306.253
306.016
305.856
305.574
305.424
305.218
305.12
305.027
304.848
304.728
304.525
304.39
304.158
304.032
303.861
303.778
303.698
303.542
303.434
303.249
303.122
302.896
302.769
302.585
302.479
302.326
302.249
302.168
302.003
301.885
301.667
301.545
301.366
301.276
301.184
300.996
300.862
300.62
300.45
300.14
299.966
299.713
299.587
299.458
299.192
299.002
298.659
298.42
297.984
297.741
297.387
297.213
297.035
296.67
296.412
295.948
295.628
295.047
294.727
294.264
294.039
293.815
293.352
293.035
292.474
292.157
290.67
290.176
289.674
289.165
288.65
288.129
287.603
287.072
286.537
285.999
285.457
284.914
284.368
283.821
283.274
290.678
290.183
289.68
289.171
288.655
288.134
287.607
287.076
286.54
286.001
285.46
284.915
284.369
283.822
283.274
290.693
290.197
289.694
289.184
288.667
288.144
287.616
287.084
286.547
286.007
285.464
284.919
284.372
283.824
283.275
290.717
290.219
289.714
289.202
288.684
288.16
287.63
287.096
286.557
286.016
285.471
284.924
284.376
283.826
283.275
290.748
290.249
289.742
289.228
288.707
288.18
287.648
287.111
286.571
286.027
285.48
284.931
284.381
283.829
283.276
290.788
290.286
289.776
289.259
288.735
288.206
287.671
287.131
286.588
286.041
285.492
284.94
284.387
283.833
283.278
290.836
290.331
289.818
289.298
288.77
288.237
287.698
287.155
286.608
286.058
285.505
284.951
284.394
283.837
283.279
290.893
290.385
289.868
289.343
288.811
288.273
287.729
287.182
286.631
286.077
285.521
284.962
284.403
283.842
283.281
290.959
290.447
289.925
289.394
288.857
288.313
287.765
287.213
286.657
286.099
285.538
284.976
284.412
283.848
283.283
291.036
290.518
289.99
289.453
288.909
288.359
287.805
287.247
286.686
286.122
285.557
284.99
284.422
283.854
283.285
291.125
290.6
290.064
289.519
288.967
288.409
287.848
287.284
286.717
286.148
285.578
285.006
284.433
283.86
283.287
291.227
290.693
290.147
289.592
289.03
288.464
287.894
287.323
286.75
286.175
285.599
285.022
284.445
283.867
283.289
291.345
290.799
290.239
289.67
289.097
288.521
287.943
287.364
286.784
286.203
285.622
285.04
284.457
283.874
283.291
291.485
290.92
290.339
289.754
289.167
288.58
287.993
287.406
286.819
286.232
285.644
285.057
284.469
283.882
283.294
291.664
291.056
290.444
289.838
289.236
288.638
288.042
287.448
286.854
286.26
285.667
285.075
284.482
283.889
283.296
322.705
322.115
321.526
320.936
320.346
319.756
319.166
318.575
317.983
317.39
316.794
316.194
315.586
314.96
314.283
322.703
322.109
321.515
320.921
320.326
319.731
319.136
318.539
317.942
317.342
316.739
316.13
315.511
314.875
314.206
322.701
322.103
321.504
320.906
320.307
319.707
319.107
318.505
317.902
317.296
316.687
316.072
315.449
314.813
314.159
322.699
322.096
321.494
320.891
320.287
319.683
319.078
318.472
317.864
317.253
316.639
316.02
315.395
314.763
314.126
322.697
322.09
321.484
320.876
320.269
319.66
319.051
318.44
317.828
317.213
316.595
315.973
315.347
314.715
314.074
322.695
322.084
321.474
320.863
320.251
319.638
319.025
318.41
317.793
317.174
316.553
315.929
315.303
314.675
314.047
322.693
322.079
321.464
320.849
320.233
319.617
318.999
318.38
317.76
317.138
316.513
315.887
315.26
314.634
314.018
322.691
322.073
321.455
320.836
320.217
319.596
318.975
318.352
317.728
317.102
316.475
315.846
315.216
314.586
313.957
322.689
322.068
321.446
320.823
320.2
319.577
318.952
318.325
317.698
317.069
316.438
315.805
315.172
314.539
313.915
322.688
322.062
321.437
320.811
320.185
319.558
318.929
318.3
317.669
317.036
316.402
315.765
315.127
314.486
313.836
322.686
322.057
321.429
320.8
320.17
319.539
318.908
318.275
317.641
317.005
316.367
315.727
315.084
314.439
313.794
322.684
322.053
321.421
320.789
320.156
319.522
318.887
318.251
317.614
316.975
316.334
315.69
315.044
314.393
313.732
322.683
322.048
321.413
320.778
320.142
319.505
318.867
318.229
317.588
316.946
316.302
315.656
315.007
314.354
313.698
322.681
322.044
321.406
320.768
320.129
319.489
318.849
318.207
317.564
316.919
316.273
315.624
314.972
314.317
313.651
322.68
322.04
321.399
320.758
320.116
319.474
318.831
318.186
317.541
316.893
316.245
315.594
314.941
314.286
313.63
322.679
322.036
321.392
320.749
320.104
319.459
318.814
318.167
317.519
316.869
316.218
315.565
314.911
314.258
313.609
322.677
322.032
321.386
320.74
320.093
319.446
318.797
318.148
317.497
316.846
316.192
315.538
314.882
314.225
313.567
322.676
322.028
321.38
320.731
320.082
319.432
318.782
318.13
317.477
316.823
316.168
315.511
314.853
314.194
313.539
322.675
322.025
321.374
320.723
320.072
319.42
318.767
318.113
317.458
316.802
316.145
315.486
314.825
314.161
313.49
322.674
322.021
321.369
320.716
320.062
319.408
318.753
318.097
317.44
316.782
316.123
315.461
314.798
314.132
313.465
322.673
322.018
321.363
320.708
320.053
319.397
318.74
318.082
317.423
316.763
316.102
315.439
314.774
314.106
313.43
322.672
322.015
321.358
320.701
320.044
319.386
318.727
318.067
317.407
316.745
316.082
315.418
314.752
314.084
313.414
322.671
322.012
321.354
320.695
320.036
319.376
318.715
318.054
317.391
316.728
316.063
315.398
314.731
314.064
313.4
322.67
322.01
321.349
320.689
320.028
319.366
318.704
318.04
317.376
316.712
316.046
315.379
314.711
314.042
313.372
322.669
322.007
321.345
320.683
320.02
319.357
318.693
318.028
317.363
316.696
316.029
315.36
314.691
314.022
313.355
322.668
322.005
321.341
320.677
320.013
319.348
318.683
318.016
317.349
316.681
316.012
315.343
314.672
314
313.326
322.668
322.003
321.337
320.672
320.006
319.34
318.673
318.005
317.337
316.667
315.997
315.326
314.653
313.979
313.307
322.667
322
321.334
320.667
320
319.332
318.664
317.995
317.325
316.654
315.983
315.31
314.635
313.958
313.276
322.666
321.998
321.331
320.662
319.994
319.325
318.655
317.985
317.314
316.642
315.969
315.295
314.619
313.941
313.261
322.666
321.997
321.328
320.658
319.988
319.318
318.648
317.976
317.304
316.631
315.957
315.281
314.604
313.925
313.24
322.665
321.995
321.325
320.654
319.983
319.312
318.64
317.968
317.294
316.62
315.945
315.269
314.591
313.912
313.231
322.664
321.993
321.322
320.65
319.979
319.306
318.633
317.96
317.285
316.61
315.934
315.257
314.579
313.901
313.223
322.664
321.992
321.319
320.647
319.974
319.301
318.627
317.952
317.277
316.601
315.924
315.247
314.568
313.889
313.208
322.663
321.99
321.317
320.644
319.97
319.296
318.621
317.946
317.27
316.593
315.915
315.237
314.558
313.878
313.199
322.663
321.989
321.315
320.641
319.966
319.291
318.616
317.94
317.263
316.585
315.907
315.228
314.548
313.867
313.184
322.663
321.988
321.313
320.638
319.963
319.287
318.611
317.934
317.257
316.578
315.899
315.219
314.538
313.857
313.175
322.662
321.987
321.311
320.636
319.96
319.283
318.606
317.929
317.251
316.572
315.892
315.212
314.53
313.847
313.161
322.662
321.986
321.31
320.634
319.957
319.28
318.603
317.924
317.246
316.566
315.886
315.205
314.522
313.839
313.154
322.662
321.985
321.309
320.632
319.955
319.277
318.599
317.92
317.241
316.561
315.881
315.199
314.516
313.832
313.145
322.662
321.985
321.307
320.63
319.952
319.274
318.596
317.917
317.237
316.557
315.876
315.194
314.511
313.827
313.141
322.661
321.984
321.306
320.629
319.951
319.272
318.593
317.914
317.234
316.553
315.872
315.19
314.506
313.823
313.139
322.661
321.983
321.306
320.628
319.949
319.27
318.591
317.912
317.231
316.55
315.869
315.186
314.503
313.819
313.134
322.661
321.983
321.305
320.627
319.948
319.269
318.59
317.91
317.229
316.548
315.866
315.183
314.5
313.816
313.131
322.661
321.983
321.304
320.626
319.947
319.268
318.588
317.908
317.228
316.546
315.864
315.181
314.498
313.813
313.127
322.661
321.983
321.304
320.625
319.947
319.267
318.588
317.907
317.226
316.545
315.863
315.18
314.496
313.811
313.126
322.661
321.982
321.304
320.625
319.946
319.267
318.587
317.907
317.226
316.544
315.862
315.179
314.495
313.81
313.125
322.661
321.982
321.304
320.625
319.946
319.267
318.587
317.907
317.226
316.544
315.862
315.179
314.495
313.81
313.124
322.661
321.983
321.304
320.626
319.947
319.267
318.588
317.907
317.227
316.545
315.863
315.18
314.496
313.811
313.125
322.661
321.983
321.305
320.626
319.947
319.268
318.589
317.909
317.228
316.546
315.864
315.181
314.497
313.812
313.126
322.661
321.983
321.305
320.627
319.948
319.269
318.59
317.91
317.229
316.548
315.866
315.183
314.499
313.814
313.128
322.661
321.984
321.306
320.628
319.95
319.271
318.592
317.912
317.232
316.551
315.869
315.186
314.502
313.817
313.131
322.661
321.984
321.307
320.629
319.951
319.273
318.594
317.915
317.235
316.554
315.872
315.19
314.506
313.821
313.135
322.662
321.985
321.308
320.631
319.953
319.275
318.597
317.918
317.238
316.558
315.877
315.194
314.511
313.827
313.142
322.662
321.986
321.309
320.632
319.955
319.278
318.6
317.922
317.242
316.562
315.882
315.2
314.517
313.833
313.148
322.662
321.986
321.311
320.634
319.958
319.281
318.604
317.926
317.247
316.568
315.887
315.206
314.524
313.841
313.159
322.662
321.987
321.312
320.637
319.961
319.285
318.608
317.931
317.252
316.574
315.894
315.213
314.532
313.849
313.166
322.663
321.989
321.314
320.639
319.964
319.289
318.613
317.936
317.258
316.58
315.901
315.221
314.54
313.858
313.177
322.663
321.99
321.316
320.642
319.968
319.293
318.618
317.942
317.265
316.587
315.909
315.229
314.548
313.866
313.183
322.664
321.991
321.318
320.645
319.972
319.298
318.624
317.948
317.272
316.596
315.918
315.239
314.558
313.876
313.19
322.664
321.993
321.321
320.649
319.976
319.303
318.63
317.956
317.281
316.605
315.927
315.249
314.569
313.887
313.204
322.665
321.994
321.323
320.652
319.981
319.309
318.637
317.964
317.289
316.614
315.938
315.261
314.582
313.9
313.215
322.665
321.996
321.326
320.657
319.986
319.316
318.644
317.972
317.299
316.625
315.95
315.274
314.596
313.916
313.236
322.666
321.998
321.329
320.661
319.992
319.322
318.652
317.981
317.309
316.637
315.963
315.288
314.611
313.933
313.251
322.667
322
321.333
320.666
319.998
319.33
318.661
317.991
317.321
316.649
315.977
315.303
314.628
313.953
313.28
322.667
322.002
321.336
320.671
320.004
319.338
318.67
318.002
317.333
316.662
315.991
315.319
314.646
313.972
313.296
322.668
322.004
321.34
320.676
320.011
319.346
318.68
318.013
317.345
316.677
316.007
315.336
314.664
313.991
313.322
322.669
322.007
321.344
320.682
320.018
319.355
318.69
318.025
317.359
316.692
316.023
315.353
314.682
314.009
313.335
322.67
322.009
321.349
320.688
320.026
319.364
318.701
318.038
317.373
316.708
316.041
315.372
314.701
314.028
313.348
322.671
322.012
321.353
320.694
320.034
319.374
318.713
318.051
317.389
316.725
316.059
315.392
314.723
314.051
313.377
322.672
322.015
321.358
320.701
320.043
319.385
318.726
318.066
317.405
316.743
316.079
315.414
314.747
314.076
313.399
322.673
322.018
321.363
320.708
320.052
319.396
318.739
318.081
317.422
316.762
316.101
315.438
314.773
314.106
313.438
322.674
322.021
321.368
320.715
320.062
319.407
318.752
318.097
317.44
316.782
316.123
315.463
314.801
314.137
313.466
322.675
322.024
321.374
320.723
320.072
319.42
318.767
318.113
317.459
316.803
316.147
315.489
314.83
314.172
313.518
322.676
322.028
321.38
320.731
320.082
319.432
318.782
318.131
317.478
316.825
316.171
315.516
314.86
314.204
313.547
322.677
322.032
321.386
320.74
320.093
319.446
318.798
318.149
317.499
316.848
316.196
315.543
314.89
314.237
313.591
322.678
322.035
321.392
320.748
320.104
319.46
318.814
318.168
317.52
316.872
316.222
315.571
314.919
314.266
313.612
322.68
322.039
321.399
320.758
320.116
319.474
318.831
318.187
317.542
316.896
316.249
315.6
314.949
314.295
313.633
322.681
322.044
321.406
320.767
320.129
319.489
318.849
318.208
317.565
316.922
316.277
315.63
314.982
314.331
313.678
322.683
322.048
321.413
320.777
320.141
319.505
318.867
318.229
317.589
316.948
316.306
315.662
315.017
314.367
313.71
322.684
322.052
321.42
320.788
320.155
319.521
318.887
318.251
317.614
316.976
316.337
315.696
315.054
314.41
313.767
322.686
322.057
321.428
320.799
320.169
319.538
318.907
318.274
317.64
317.005
316.368
315.731
315.092
314.452
313.805
322.687
322.062
321.436
320.81
320.183
319.556
318.927
318.298
317.667
317.034
316.401
315.766
315.131
314.498
313.874
322.689
322.067
321.445
320.822
320.199
319.574
318.949
318.322
317.695
317.065
316.434
315.802
315.17
314.539
313.91
322.691
322.072
321.453
320.834
320.214
319.594
318.972
318.348
317.723
317.097
316.468
315.838
315.207
314.579
313.959
322.693
322.078
321.463
320.847
320.231
319.614
318.995
318.375
317.754
317.13
316.504
315.875
315.244
314.612
313.982
322.694
322.083
321.472
320.86
320.248
319.635
319.02
318.404
317.786
317.165
316.541
315.913
315.281
314.644
314.001
322.696
322.089
321.482
320.874
320.266
319.656
319.046
318.434
317.819
317.202
316.581
315.954
315.321
314.68
314.034
322.698
322.095
321.492
320.888
320.284
319.679
319.073
318.465
317.855
317.242
316.625
316.001
315.367
314.719
314.054
322.701
322.102
321.502
320.903
320.303
319.703
319.101
318.498
317.894
317.286
316.673
316.054
315.422
314.769
314.074
322.703
322.108
321.513
320.918
320.323
319.727
319.13
318.533
317.934
317.332
316.727
316.116
315.493
314.848
314.144
291.891
291.183
290.536
289.911
289.297
288.69
288.086
287.485
286.885
286.286
285.688
285.091
284.493
283.896
283.299
291.957
291.258
290.602
289.969
289.348
288.734
288.125
287.518
286.913
286.31
285.707
285.105
284.503
283.902
283.301
291.967
291.302
290.654
290.019
289.394
288.775
288.161
287.549
286.94
286.332
285.725
285.119
284.513
283.908
283.303
291.978
291.335
290.695
290.062
289.436
288.814
288.195
287.58
286.966
286.354
285.743
285.133
284.523
283.914
283.305
291.994
291.365
290.732
290.101
289.474
288.849
288.227
287.608
286.991
286.375
285.76
285.146
284.532
283.919
283.306
292.025
291.398
290.768
290.138
289.509
288.883
288.258
287.635
287.014
286.395
285.776
285.158
284.541
283.925
283.308
292.051
291.432
290.804
290.173
289.543
288.914
288.287
287.661
287.037
286.414
285.792
285.171
284.55
283.93
283.31
292.101
291.472
290.841
290.209
289.576
288.945
288.315
287.686
287.059
286.433
285.807
285.183
284.559
283.935
283.312
292.137
291.512
290.879
290.244
289.609
288.975
288.342
287.71
287.08
286.45
285.822
285.194
284.567
283.94
283.313
292.206
291.558
290.918
290.279
289.641
289.004
288.368
287.733
287.1
286.468
285.836
285.205
284.575
283.945
283.315
292.243
291.6
290.955
290.313
289.672
289.032
288.393
287.756
287.119
286.484
285.849
285.216
284.582
283.949
283.316
292.299
291.641
290.992
290.346
289.701
289.059
288.417
287.777
287.138
286.5
285.863
285.226
284.589
283.954
283.318
292.33
291.677
291.026
290.377
289.73
289.085
288.441
287.798
287.156
286.515
285.875
285.236
284.596
283.958
283.319
292.375
291.712
291.058
290.407
289.758
289.11
288.463
287.818
287.173
286.53
285.887
285.245
284.603
283.962
283.321
292.395
291.741
291.087
290.435
289.784
289.134
288.485
287.837
287.19
286.544
285.899
285.254
284.61
283.966
283.322
292.416
291.769
291.116
290.462
289.809
289.157
288.506
287.855
287.206
286.558
285.91
285.263
284.616
283.969
283.323
292.459
291.802
291.145
290.489
289.834
289.179
288.526
287.873
287.222
286.571
285.921
285.271
284.622
283.973
283.324
292.487
291.833
291.175
290.516
289.858
289.201
288.545
287.89
287.236
286.583
285.931
285.279
284.627
283.976
283.325
292.538
291.868
291.204
290.542
289.881
289.222
288.564
287.907
287.25
286.595
285.941
285.287
284.633
283.98
283.327
292.566
291.898
291.231
290.566
289.903
289.242
288.581
287.922
287.264
286.607
285.95
285.294
284.638
283.983
283.328
292.605
291.927
291.257
290.589
289.924
289.26
288.598
287.937
287.277
286.618
285.959
285.301
284.643
283.986
283.329
292.625
291.952
291.28
290.611
289.944
289.278
288.614
287.951
287.289
286.628
285.967
285.307
284.648
283.989
283.33
292.654
291.975
291.301
290.631
289.962
289.295
288.629
287.964
287.301
286.638
285.975
285.314
284.652
283.991
283.33
292.668
291.993
291.321
290.649
289.979
289.311
288.643
287.977
287.312
286.647
285.983
285.32
284.657
283.994
283.331
292.68
292.011
291.339
290.667
289.996
289.326
288.657
287.989
287.322
286.656
285.99
285.325
284.661
283.996
283.332
292.705
292.03
291.357
290.683
290.011
289.34
288.669
288
287.332
286.664
285.997
285.331
284.664
283.999
283.333
292.722
292.049
291.374
290.699
290.026
289.353
288.681
288.011
287.341
286.672
286.003
285.335
284.668
284.001
283.334
292.751
292.069
291.391
290.714
290.039
289.365
288.693
288.021
287.35
286.679
286.009
285.34
284.671
284.003
283.334
292.766
292.086
291.406
290.728
290.052
289.377
288.703
288.03
287.358
286.686
286.015
285.345
284.674
284.005
283.335
292.787
292.101
291.42
290.741
290.064
289.388
288.713
288.038
287.365
286.692
286.02
285.349
284.677
284.006
283.335
292.798
292.115
291.433
290.753
290.075
289.398
288.721
288.046
287.372
286.698
286.025
285.352
284.68
284.008
283.336
292.812
292.126
291.444
290.764
290.085
289.407
288.73
288.054
287.378
286.704
286.03
285.356
284.683
284.009
283.336
292.819
292.136
291.454
290.773
290.093
289.415
288.737
288.06
287.384
286.709
286.034
285.359
284.685
284.011
283.337
292.825
292.144
291.463
290.782
290.102
289.422
288.744
288.066
287.389
286.713
286.037
285.362
284.687
284.012
283.337
292.836
292.153
291.471
290.79
290.109
289.429
288.75
288.072
287.394
286.717
286.041
285.365
284.689
284.013
283.338
292.843
292.161
291.479
290.797
290.116
289.435
288.756
288.077
287.399
286.721
286.044
285.367
284.691
284.014
283.338