/*--------------------------------*- C++ -*----------------------------------*\
| =========                 |                                                 |
| \\      /  F ield         | OpenFOAM: The Open Source CFD Toolbox           |
|  \\    /   O peration     | Version:  5.x                                   |
|   \\  /    A nd           | Web:      www.OpenFOAM.org                      |
|    \\/     M anipulation  |                                                 |
\*---------------------------------------------------------------------------*/
FoamFile
{
    version     2.0;
    format      ascii;
    class       volScalarField;
    location    "4.7";
    object      gradTx;
}
// * * * * * * * * * * * * * * * * * * * * * * * * * * * * * * * * * * * * * //

dimensions      [0 -1 0 1 0 0 0];

internalField   nonuniform List<scalar> 
6300
(
-51.4546
-51.4363
-51.3997
-51.3446
-51.2709
-51.1785
-51.0672
-50.9373
-50.7892
-50.6236
-50.4414
-50.2442
-50.0334
-49.8105
-49.577
-51.4732
-51.455
-51.4185
-51.3636
-51.2901
-51.1976
-51.0862
-50.956
-50.8071
-50.6404
-50.457
-50.2582
-50.0458
-49.8217
-49.5875
-51.5104
-51.4924
-51.4563
-51.4017
-51.3284
-51.2362
-51.1246
-50.9936
-50.8433
-50.6745
-50.4882
-50.2861
-50.0704
-49.8434
-49.6076
-51.5661
-51.5484
-51.5127
-51.4589
-51.3863
-51.2944
-51.1827
-51.0507
-50.8986
-50.7265
-50.5358
-50.3282
-50.1066
-49.8744
-49.6354
-51.6398
-51.6226
-51.5879
-51.5352
-51.4637
-51.3728
-51.2613
-51.1286
-50.974
-50.7977
-50.6005
-50.3847
-50.1538
-49.9128
-49.6675
-51.7312
-51.7147
-51.6814
-51.6305
-51.5612
-51.4721
-51.3617
-51.2287
-51.0717
-50.8901
-50.6843
-50.4566
-50.2115
-49.956
-49.699
-51.8395
-51.824
-51.7928
-51.7448
-51.6788
-51.593
-51.4852
-51.3532
-51.1944
-51.0071
-50.7905
-50.5464
-50.28
-50.001
-49.7232
-51.9635
-51.9496
-51.9213
-51.8775
-51.8166
-51.7362
-51.6334
-51.5047
-51.3461
-51.1537
-50.9247
-50.6589
-50.3616
-50.0452
-49.7307
-52.1019
-52.09
-52.0657
-52.0277
-51.9742
-51.9022
-51.808
-51.6866
-51.5321
-51.3373
-51.0959
-50.8035
-50.4626
-50.0877
-49.7097
-52.2525
-52.2433
-52.2242
-52.194
-52.1506
-52.0908
-52.0101
-51.9022
-51.7585
-51.5682
-51.3184
-50.9969
-50.5981
-50.1337
-49.6466
-52.4127
-52.4067
-52.3942
-52.3738
-52.3437
-52.3007
-52.2398
-52.1538
-52.032
-51.8588
-51.6129
-51.2679
-50.7993
-50.2028
-49.5292
-52.5794
-52.5772
-52.5723
-52.5639
-52.5503
-52.5288
-52.495
-52.4417
-52.3573
-52.2226
-52.0067
-51.6628
-51.1287
-50.3493
-49.3541
-52.7486
-52.7506
-52.7544
-52.7596
-52.7651
-52.7696
-52.77
-52.7612
-52.7333
-52.6677
-52.5287
-52.2482
-51.7038
-50.7121
-49.1482
-52.9163
-52.9227
-52.9356
-52.9552
-52.9815
-53.0148
-53.0547
-53.1
-53.1471
-53.1865
-53.1925
-53.0979
-52.7266
-51.6476
-49.0583
-53.078
-53.0887
-53.1106
-53.1444
-53.1914
-53.2537
-53.3342
-53.4372
-53.5691
-53.7388
-53.9573
-54.2247
-54.4576
-54.0944
-49.99
-49.3544
-49.1442
-48.9261
-48.6988
-48.4605
-48.209
-47.9419
-47.657
-47.3523
-47.0264
-46.6788
-46.3096
-45.9197
-45.5105
-45.0842
-44.643
-44.1896
-43.7268
-43.2574
-42.7844
-42.3107
-41.8393
-41.3729
-40.914
-40.4649
-40.0275
-39.6032
-39.193
-38.7976
-38.4172
-38.0515
-37.6999
-37.3616
-37.0354
-36.72
-36.4141
-36.1162
-35.8251
-35.5396
-35.2584
-34.9804
-34.7049
-34.4309
-34.158
-33.886
-33.6151
-33.3459
-33.0794
-32.8169
-32.5599
-32.3102
-32.0692
-31.8386
-31.6196
-31.4135
-31.221
-31.0427
-30.8789
-30.7299
-30.5955
-30.4754
-30.3695
-30.2773
-30.1986
-30.1332
-30.081
-30.0418
-30.0156
-30.0024
-30.0021
-30.0148
-30.0403
-30.0788
-30.1303
-30.195
-30.2727
-30.3635
-30.4673
-30.584
-30.7131
-30.8544
-31.0075
-31.1718
-31.3465
-31.5311
-31.7242
-31.9248
-32.1311
-32.3414
-32.5536
-49.3651
-49.1559
-48.9397
-48.7151
-48.48
-48.2319
-47.968
-47.6859
-47.3831
-47.0581
-46.7103
-46.3399
-45.9477
-45.5357
-45.1059
-44.6609
-44.2036
-43.7366
-43.263
-42.7857
-42.3079
-41.8324
-41.3623
-40.9002
-40.4484
-40.0088
-39.583
-39.172
-38.7764
-38.3962
-38.0314
-37.681
-37.3443
-37.02
-36.7065
-36.4026
-36.1066
-35.8173
-35.5334
-35.2537
-34.9771
-34.7026
-34.4293
-34.1567
-33.8844
-33.6126
-33.342
-33.0736
-32.8088
-32.5495
-32.2974
-32.0542
-31.8217
-31.6011
-31.3937
-31.2003
-31.0215
-30.8576
-30.7087
-30.5746
-30.4549
-30.3494
-30.2576
-30.1792
-30.114
-30.0619
-30.0228
-29.9966
-29.9835
-29.9832
-29.9958
-30.0213
-30.0597
-30.1112
-30.1757
-30.2535
-30.3444
-30.4485
-30.5656
-30.6952
-30.8372
-30.991
-31.1562
-31.3322
-31.5182
-31.7132
-31.916
-32.125
-32.3382
-32.5535
-49.3854
-49.1783
-48.966
-48.7469
-48.5186
-48.2778
-48.021
-47.7448
-47.4462
-47.1232
-46.7749
-46.4017
-46.0049
-45.5867
-45.1499
-44.6972
-44.2317
-43.7564
-43.2742
-42.7883
-42.3019
-41.8182
-41.3406
-40.8718
-40.4145
-39.9707
-39.5419
-39.1292
-38.733
-38.3536
-37.9905
-37.6428
-37.3095
-36.989
-36.6796
-36.3797
-36.0876
-35.8019
-35.5214
-35.2448
-34.9709
-34.6987
-34.427
-34.1549
-33.8821
-33.6085
-33.3348
-33.0624
-32.793
-32.5287
-32.2716
-32.0239
-31.7873
-31.5635
-31.3536
-31.1584
-30.9787
-30.8145
-30.6659
-30.5325
-30.4138
-30.3093
-30.2183
-30.1405
-30.0756
-30.0237
-29.9847
-29.9587
-29.9456
-29.9454
-29.958
-29.9833
-30.0215
-30.0727
-30.137
-30.2148
-30.306
-30.4107
-30.5285
-30.6592
-30.8024
-30.9576
-31.1246
-31.3029
-31.4918
-31.6906
-31.8979
-32.1122
-32.3314
-32.5531
-49.4129
-49.2087
-49.0025
-48.7925
-48.5755
-48.3472
-48.1025
-47.8365
-47.5449
-47.2251
-46.8758
-46.4978
-46.0932
-45.6651
-45.217
-44.7523
-44.2744
-43.7863
-43.2911
-42.7919
-42.2922
-41.7958
-41.3064
-40.8273
-40.3616
-39.9113
-39.478
-39.0627
-38.6659
-38.2877
-37.9274
-37.5842
-37.2565
-36.9422
-36.6393
-36.3457
-36.0594
-35.7792
-35.5037
-35.2319
-34.9624
-34.694
-34.4251
-34.1544
-33.8809
-33.6045
-33.3259
-33.0469
-32.7698
-32.4973
-32.2323
-31.9773
-31.7346
-31.5057
-31.292
-31.0943
-30.9132
-30.7488
-30.601
-30.4691
-30.3522
-30.2493
-30.1597
-30.0828
-30.0184
-29.9666
-29.9276
-29.9017
-29.8888
-29.8888
-29.9014
-29.9265
-29.9642
-30.0148
-30.0787
-30.1563
-30.2479
-30.3535
-30.4726
-30.6049
-30.7498
-30.907
-31.0764
-31.2577
-31.4509
-31.6551
-31.8694
-32.092
-32.3206
-32.5523
-49.4432
-49.2425
-49.045
-48.8487
-48.6493
-48.4406
-48.2151
-47.9653
-47.6849
-47.3697
-47.0185
-46.6327
-46.2159
-45.7727
-45.3083
-44.827
-44.3322
-43.827
-43.314
-42.7965
-42.2782
-41.7637
-41.2576
-40.7641
-40.2866
-39.8276
-39.3884
-38.9699
-38.5724
-38.196
-37.8402
-37.5036
-37.1842
-36.8793
-36.5858
-36.3011
-36.0229
-35.7498
-35.481
-35.2157
-34.9526
-34.6901
-34.426
-34.1578
-33.8838
-33.6035
-33.3177
-33.0286
-32.7398
-32.4551
-32.1784
-31.9131
-31.6617
-31.4259
-31.2071
-31.0061
-30.8234
-30.6592
-30.513
-30.3838
-30.2701
-30.1701
-30.0826
-30.0068
-29.9426
-29.8907
-29.8515
-29.8257
-29.8132
-29.8136
-29.8265
-29.8512
-29.888
-29.9374
-30.0002
-30.0773
-30.1694
-30.2762
-30.3974
-30.5319
-30.6791
-30.8385
-31.0104
-31.1952
-31.3934
-31.6048
-31.8285
-32.0627
-32.3046
-32.5508
-49.4698
-49.2722
-49.0862
-48.9097
-48.737
-48.5586
-48.3632
-48.1387
-47.8753
-47.5668
-47.2116
-46.8128
-46.3767
-45.9114
-45.4244
-44.9213
-44.4056
-43.8792
-43.344
-42.8025
-42.2592
-41.7199
-41.191
-40.6781
-40.1855
-39.7156
-39.2694
-38.847
-38.4489
-38.0751
-37.7254
-37.3985
-37.0914
-36.8001
-36.52
-36.2472
-35.979
-35.7144
-35.4534
-35.1962
-34.9421
-34.6888
-34.4326
-34.1695
-33.896
-33.6105
-33.3141
-33.0101
-32.7037
-32.4012
-32.108
-31.8287
-31.5661
-31.3217
-31.0964
-30.8912
-30.7067
-30.5433
-30.4003
-30.2761
-30.1678
-30.0727
-29.9883
-29.9137
-29.8491
-29.7959
-29.7559
-29.7301
-29.7186
-29.7203
-29.7339
-29.7583
-29.7933
-29.8401
-29.9006
-29.9765
-30.069
-30.1781
-30.3024
-30.4403
-30.5902
-30.7517
-30.9254
-31.1131
-31.3164
-31.5363
-31.7721
-32.0219
-32.282
-32.548
-49.4824
-49.2859
-49.1141
-48.9658
-48.8332
-48.7019
-48.5534
-48.3686
-48.1311
-47.8314
-47.4678
-47.0468
-46.5802
-46.0819
-45.564
-45.0341
-44.4946
-43.9447
-43.3832
-42.8115
-42.2348
-41.6616
-41.1015
-40.5632
-40.0521
-39.5699
-39.1162
-38.6897
-38.2905
-37.9196
-37.5781
-37.265
-36.9761
-36.705
-36.444
-36.1868
-35.9301
-35.6739
-35.4204
-35.1725
-34.9305
-34.6916
-34.4493
-34.1962
-33.9254
-33.6334
-33.3214
-32.9947
-32.6622
-32.3337
-32.0177
-31.7203
-31.4441
-31.1896
-30.9568
-30.7464
-30.5596
-30.3978
-30.2605
-30.145
-30.0464
-29.9594
-29.8798
-29.8058
-29.7387
-29.6819
-29.6395
-29.6137
-29.6045
-29.6095
-29.6254
-29.6495
-29.6814
-29.7229
-29.7782
-29.8513
-29.9445
-30.0575
-30.1876
-30.3309
-30.4842
-30.6467
-30.8199
-31.008
-31.2151
-31.4442
-31.6953
-31.9657
-32.2505
-32.5434
-49.4657
-49.2642
-49.1086
-48.9999
-48.9278
-48.8702
-48.7966
-48.6746
-48.4771
-48.1883
-47.8072
-47.3468
-46.8297
-46.2811
-45.7214
-45.1611
-44.5991
-44.0273
-43.4376
-42.8281
-42.2058
-41.5845
-40.9811
-40.4095
-39.8772
-39.3837
-38.924
-38.4934
-38.0915
-37.7222
-37.3903
-37.0966
-36.8355
-36.5954
-36.3626
-36.126
-35.8808
-35.6294
-35.3797
-35.1402
-34.9148
-34.6991
-34.4819
-34.2483
-33.9852
-33.6853
-33.3496
-32.9878
-32.615
-32.2479
-31.9006
-31.5812
-31.2906
-31.0262
-30.7849
-30.5672
-30.3764
-30.2167
-30.0891
-29.9892
-29.9081
-29.8353
-29.7628
-29.6876
-29.6131
-29.5471
-29.4986
-29.473
-29.4696
-29.4828
-29.5047
-29.5293
-29.5549
-29.5857
-29.6299
-29.6966
-29.7909
-29.912
-30.0534
-30.2067
-30.3648
-30.5256
-30.6928
-30.8749
-31.0818
-31.3199
-31.5902
-31.8884
-32.2067
-32.5364
-49.3969
-49.1768
-49.036
-48.9816
-49.002
-49.062
-49.1099
-49.0898
-48.955
-48.6787
-48.2612
-47.7289
-47.125
-46.4965
-45.8801
-45.291
-44.7182
-44.1361
-43.5207
-42.8635
-42.1755
-41.4823
-40.8151
-40.1996
-39.6468
-39.1492
-38.6901
-38.256
-37.8458
-37.4712
-37.1475
-36.8817
-36.665
-36.4754
-36.2867
-36.0779
-35.8406
-35.5826
-35.3243
-35.0878
-34.885
-34.7091
-34.538
-34.3429
-34.0981
-33.7885
-33.4156
-32.9967
-32.5593
-32.1335
-31.7435
-31.4003
-31.0996
-30.8291
-30.579
-30.3489
-30.1482
-29.9893
-29.8777
-29.8062
-29.7574
-29.7105
-29.6494
-29.5683
-29.4748
-29.3869
-29.3246
-29.2998
-29.3105
-29.343
-29.38
-29.4073
-29.4207
-29.4285
-29.449
-29.5018
-29.5986
-29.7367
-29.9017
-30.075
-30.2412
-30.3949
-30.5436
-30.7059
-30.9029
-31.1488
-31.4446
-31.7815
-32.1463
-32.5263
-49.2424
-48.9756
-48.8392
-48.8559
-49.0194
-49.2715
-49.5212
-49.6706
-49.6371
-49.3727
-48.8807
-48.2145
-47.4562
-46.6946
-45.9999
-45.3975
-44.8511
-44.2931
-43.6644
-42.9436
-42.1529
-41.3429
-40.5748
-39.8998
-39.3369
-38.8595
-38.4205
-37.9843
-37.5492
-37.1471
-36.8213
-36.5964
-36.4557
-36.3542
-36.2399
-36.0709
-35.8303
-35.5365
-35.2374
-34.987
-34.8165
-34.7121
-34.6286
-34.5094
-34.3042
-33.983
-33.5479
-33.0321
-32.4868
-31.9676
-31.5189
-31.158
-30.8647
-30.6028
-30.3443
-30.0881
-29.8598
-29.6934
-29.6083
-29.5905
-29.6037
-29.606
-29.5645
-29.4666
-29.3282
-29.1897
-29.0962
-29.0754
-29.1195
-29.1967
-29.2687
-29.305
-29.2942
-29.253
-29.221
-29.2433
-29.3465
-29.5222
-29.7378
-29.9532
-30.1354
-30.2709
-30.3746
-30.4866
-30.6534
-30.9054
-31.2396
-31.6339
-32.0638
-32.5125
-48.9533
-48.587
-48.4222
-48.519
-48.9095
-49.4845
-50.0773
-50.515
-50.6522
-50.3946
-49.7514
-48.8331
-47.7926
-46.7966
-45.9869
-45.4239
-45.0007
-44.5522
-43.9409
-43.1247
-42.1584
-41.1433
-40.2008
-39.4387
-38.9043
-38.5147
-38.1471
-37.7114
-37.2052
-36.7135
-36.35
-36.1901
-36.1898
-36.2519
-36.2718
-36.167
-35.897
-35.4981
-35.0803
-34.7712
-34.653
-34.6852
-34.7706
-34.7996
-34.6772
-34.3415
-33.7963
-33.1099
-32.3768
-31.7001
-31.1679
-30.818
-30.5849
-30.3713
-30.1059
-29.7871
-29.4819
-29.2804
-29.2419
-29.3299
-29.4654
-29.5644
-29.5607
-29.4229
-29.1817
-28.9271
-28.763
-28.7575
-28.8804
-29.0576
-29.2087
-29.2701
-29.2115
-29.0636
-28.9148
-28.868
-28.9898
-29.2501
-29.5739
-29.8787
-30.0966
-30.1923
-30.1934
-30.1879
-30.2811
-30.5433
-30.948
-31.4345
-31.9541
-32.4922
-48.4532
-47.9084
-47.6292
-47.7599
-48.534
-49.6726
-50.8567
-51.7925
-52.236
-51.9722
-51.0187
-49.628
-48.0654
-46.6306
-45.619
-45.2493
-45.1873
-45.046
-44.5128
-43.5224
-42.2345
-40.8397
-39.5673
-38.6501
-38.2634
-38.1382
-37.9722
-37.5401
-36.8407
-36.0955
-35.5856
-35.5542
-35.8345
-36.2101
-36.4837
-36.5013
-36.1492
-35.487
-34.767
-34.2806
-34.2727
-34.5819
-34.9939
-35.3077
-35.3575
-35.0018
-34.2481
-33.2548
-32.1856
-31.2246
-30.5543
-30.3099
-30.2766
-30.2143
-29.9445
-29.4661
-28.9544
-28.6326
-28.6933
-29.0006
-29.3795
-29.6703
-29.7497
-29.5279
-29.0543
-28.5337
-28.2012
-28.2543
-28.5628
-28.9558
-29.2775
-29.4075
-29.2571
-28.8749
-28.4616
-28.2493
-28.4334
-28.8859
-29.4373
-29.929
-30.2332
-30.2498
-30.0211
-29.7468
-29.6649
-29.9758
-30.5381
-31.1873
-31.8176
-32.4494
-47.5814
-46.848
-46.247
-46.0752
-47.6348
-49.7956
-51.9945
-53.7794
-54.839
-54.5436
-52.916
-50.6711
-48.1549
-45.8556
-44.3273
-44.6323
-45.4887
-46.1045
-45.7436
-44.3492
-42.4649
-40.3602
-38.4227
-37.0981
-37.2463
-37.8212
-38.1805
-37.7543
-36.5422
-35.1393
-34.1323
-34.4696
-35.3424
-36.3157
-37.0642
-37.3683
-36.8482
-35.5593
-34.1175
-33.101
-33.4362
-34.3308
-35.3586
-36.1959
-36.6218
-36.2351
-35.0451
-33.5088
-31.8384
-30.3302
-29.3273
-29.4976
-30.0099
-30.3559
-30.0834
-29.1928
-28.1534
-27.4335
-27.7891
-28.568
-29.4201
-30.0802
-30.3723
-29.9948
-28.9943
-27.8689
-27.0836
-27.383
-28.123
-28.956
-29.6222
-29.948
-29.6358
-28.7305
-27.7183
-27.0593
-27.49
-28.3787
-29.3864
-30.2486
-30.7836
-30.6598
-29.9138
-29.0282
-28.4825
-29.0456
-30.0028
-30.9666
-31.6785
-32.2964
-45.7515
-45.5973
-44.2461
-41.8971
-45.8695
-49.8643
-53.7287
-56.8112
-59.3935
-59.0338
-55.7026
-52.1053
-47.9323
-43.9707
-40.396
-43.2217
-46.1368
-48.5698
-48.4631
-45.8817
-43.013
-39.6403
-36.3955
-33.4256
-35.6152
-37.8147
-39.5205
-39.1003
-36.5188
-33.6131
-30.7435
-32.6142
-34.7055
-36.7451
-38.2851
-39.422
-38.6547
-35.8518
-32.8557
-29.975
-31.7941
-33.8878
-35.9978
-37.6766
-39.0563
-38.6252
-36.3407
-33.9559
-31.2577
-28.7083
-26.4106
-28.1929
-29.9827
-31.3877
-31.1123
-29.1337
-26.8923
-24.6854
-26.2755
-28.0295
-29.737
-31.0198
-31.9587
-31.3585
-29.1141
-26.714
-24.4039
-25.877
-27.5491
-29.196
-30.4567
-31.4069
-30.8682
-28.7399
-26.4659
-24.3001
-25.8869
-27.6996
-29.5445
-31.0391
-32.2821
-31.9657
-30.0073
-27.8198
-25.7033
-27.5478
-29.4574
-31.1084
-31.6743
-31.5807
-39.8111
-46.07
-43.6833
-28.6166
-44.0728
-50.1213
-56.5892
-60.5638
-68.1852
-67.8035
-58.8731
-54.369
-47.4057
-41.5293
-27.2485
-41.6827
-47.4798
-54.6927
-54.7467
-47.8285
-44.2871
-38.7368
-33.9729
-22.3237
-33.97
-38.5194
-43.9224
-43.5587
-36.9627
-32.0352
-20.5289
-30.4414
-34.1433
-37.8944
-40.0867
-44.218
-43.3924
-36.4228
-31.4278
-20.0817
-29.7565
-33.4214
-37.2581
-39.5878
-44.0985
-43.6841
-37.7808
-34.8541
-30.4628
-26.7239
-17.6184
-26.8772
-30.5094
-34.8391
-34.5936
-29.4529
-25.5812
-16.4692
-24.5255
-27.5578
-30.6652
-32.4542
-35.761
-35.0895
-29.4578
-25.4289
-16.276
-24.0842
-27.0108
-29.9919
-31.7376
-35.0094
-34.3892
-28.9587
-25.0574
-16.1365
-23.9582
-26.9737
-30.2066
-32.1915
-36.0254
-35.6357
-30.4303
-26.5086
-17.2198
-25.9558
-29.2841
-32.8122
-32.6188
-27.9086
-32.7867
-33.0374
-33.2806
-33.5129
-33.7316
-33.9341
-34.1186
-34.2839
-34.4292
-34.5538
-34.6576
-34.7406
-34.8027
-34.844
-34.8647
-32.7901
-33.0444
-33.291
-33.5263
-33.7473
-33.9516
-34.1375
-34.3036
-34.4494
-34.5743
-34.6781
-34.761
-34.8231
-34.8643
-34.8849
-32.7969
-33.0588
-33.3122
-33.5534
-33.7792
-33.9871
-34.1755
-34.3433
-34.49
-34.6153
-34.7192
-34.802
-34.8638
-34.9048
-34.9253
-32.8073
-33.0811
-33.3453
-33.5956
-33.8285
-34.0418
-34.2338
-34.4038
-34.5516
-34.6772
-34.781
-34.8634
-34.9248
-34.9655
-34.9858
-32.8219
-33.1126
-33.3918
-33.6546
-33.8972
-34.1172
-34.3137
-34.4861
-34.6349
-34.7606
-34.8639
-34.9455
-35.0062
-35.0463
-35.0663
-32.8414
-33.155
-33.4544
-33.7333
-33.9878
-34.2159
-34.4171
-34.5917
-34.7409
-34.8659
-34.9679
-35.0482
-35.1076
-35.1468
-35.1662
-32.8669
-33.2114
-33.5369
-33.836
-34.1045
-34.3411
-34.5465
-34.7223
-34.8706
-34.9937
-35.0934
-35.1713
-35.2288
-35.2666
-35.2853
-32.9008
-33.2863
-33.6454
-33.9688
-34.2527
-34.4972
-34.7051
-34.8799
-35.0252
-35.1445
-35.2402
-35.3146
-35.3692
-35.405
-35.4227
-32.9465
-33.3872
-33.7892
-34.1409
-34.4399
-34.6896
-34.8963
-35.0664
-35.2055
-35.3182
-35.408
-35.4773
-35.5279
-35.5611
-35.5775
-33.0103
-33.5265
-33.9829
-34.3654
-34.6761
-34.9249
-35.1239
-35.2835
-35.4118
-35.5145
-35.5957
-35.6581
-35.7037
-35.7335
-35.7482
-33.1013
-33.7255
-34.2502
-34.6615
-34.9738
-35.2099
-35.3907
-35.5318
-35.6433
-35.7319
-35.8017
-35.8555
-35.8948
-35.9205
-35.9333
-33.2319
-34.0234
-34.6305
-35.0559
-35.3472
-35.5501
-35.6974
-35.8094
-35.8973
-35.9675
-36.0234
-36.0669
-36.099
-36.1201
-36.1307
-33.4193
-34.505
-35.1919
-35.5833
-35.8077
-35.9454
-36.0395
-36.1109
-36.1688
-36.2171
-36.2571
-36.2893
-36.3136
-36.3299
-36.3382
-33.7313
-35.3851
-36.0495
-36.2777
-36.3537
-36.3836
-36.4041
-36.4257
-36.4497
-36.4745
-36.4982
-36.5191
-36.5358
-36.5475
-36.5534
-34.7404
-37.2535
-37.3425
-37.1247
-36.9444
-36.8307
-36.7676
-36.7382
-36.7295
-36.7327
-36.7417
-36.7526
-36.7627
-36.7702
-36.7742
-53.2167
-53.231
-53.2604
-53.3061
-53.3703
-53.4565
-53.5701
-53.7201
-53.9212
-54.2007
-54.6139
-55.2899
-56.5915
-59.7668
-69.9695
-53.3331
-53.3503
-53.3856
-53.4405
-53.5178
-53.6219
-53.7596
-53.9418
-54.187
-54.528
-55.0287
-55.8245
-57.2311
-60.0431
-66.2918
-53.4378
-53.4574
-53.4974
-53.5596
-53.647
-53.7642
-53.9183
-54.12
-54.3863
-54.7445
-55.239
-55.9357
-56.8948
-57.9329
-57.179
-53.5292
-53.5506
-53.5941
-53.6615
-53.7558
-53.8812
-54.0441
-54.2533
-54.5217
-54.8667
-55.3096
-55.8651
-56.5038
-57.0673
-57.3097
-53.6062
-53.6287
-53.6744
-53.7451
-53.8432
-53.9724
-54.1377
-54.3456
-54.604
-54.9214
-55.3028
-55.737
-56.1652
-56.4252
-56.1269
-53.6678
-53.6909
-53.7378
-53.81
-53.9093
-54.0388
-54.2019
-54.4028
-54.6454
-54.9322
-55.2602
-55.6129
-55.9437
-56.1711
-56.211
-53.7136
-53.7369
-53.7841
-53.8562
-53.9548
-54.0819
-54.2399
-54.4308
-54.656
-54.9147
-55.2019
-55.504
-55.7941
-56.048
-56.3189
-53.7435
-53.7666
-53.8133
-53.8843
-53.9807
-54.1039
-54.2551
-54.435
-54.6434
-54.8781
-55.1343
-55.4034
-55.6695
-55.9135
-56.0464
-53.7577
-53.7803
-53.826
-53.8951
-53.9884
-54.1067
-54.2503
-54.4192
-54.6123
-54.8269
-55.0592
-55.3049
-55.5603
-55.8568
-56.4271
-53.7564
-53.7784
-53.8226
-53.8894
-53.9791
-54.092
-54.228
-54.3866
-54.5661
-54.7638
-54.9763
-55.1994
-55.4226
-55.6105
-55.5012
-53.7401
-53.7613
-53.8039
-53.8681
-53.9539
-54.0614
-54.1902
-54.3394
-54.5071
-54.6908
-54.8874
-55.094
-55.3092
-55.5713
-56.1943
-53.7093
-53.7298
-53.7706
-53.832
-53.9139
-54.0162
-54.1382
-54.2791
-54.4369
-54.6092
-54.7928
-54.9826
-55.1634
-55.2822
-54.9933
-53.6647
-53.6842
-53.7233
-53.782
-53.8601
-53.9574
-54.0733
-54.2069
-54.3566
-54.5202
-54.6952
-54.8775
-55.0604
-55.2768
-55.9107
-53.6068
-53.6255
-53.6628
-53.7188
-53.7932
-53.8859
-53.9962
-54.1235
-54.2664
-54.4237
-54.5938
-54.7719
-54.9343
-54.9821
-54.4063
-53.5362
-53.554
-53.5896
-53.643
-53.714
-53.8023
-53.9075
-54.0289
-54.1661
-54.3187
-54.4881
-54.6773
-54.8876
-55.1211
-55.3567
-53.4534
-53.4704
-53.5044
-53.5553
-53.623
-53.7072
-53.8074
-53.9234
-54.0549
-54.2024
-54.37
-54.568
-54.8248
-55.2592
-56.467
-53.3592
-53.3754
-53.4078
-53.4563
-53.5208
-53.601
-53.6966
-53.8071
-53.9323
-54.0727
-54.2319
-54.4178
-54.6387
-54.8608
-54.5467
-53.2539
-53.2694
-53.3003
-53.3465
-53.408
-53.4844
-53.5754
-53.6804
-53.7989
-53.9304
-54.0767
-54.2433
-54.4518
-54.8354
-56.2705
-53.1381
-53.1529
-53.1823
-53.2264
-53.285
-53.3579
-53.4446
-53.5443
-53.6562
-53.7784
-53.9085
-54.0398
-54.1431
-54.0805
-52.9528
-53.0124
-53.0264
-53.0545
-53.0966
-53.1524
-53.2219
-53.3046
-53.3998
-53.5061
-53.6211
-53.7407
-53.8556
-53.9495
-54.0659
-54.8831
-52.8771
-52.8905
-52.9173
-52.9573
-53.0106
-53.077
-53.1561
-53.2474
-53.3497
-53.4612
-53.5775
-53.686
-53.7402
-53.565
-52.3038
-52.7328
-52.7456
-52.771
-52.8092
-52.86
-52.9234
-52.9992
-53.0872
-53.1869
-53.2982
-53.4209
-53.5539
-53.6903
-53.819
-53.9192
-52.5799
-52.592
-52.6162
-52.6525
-52.7009
-52.7614
-52.8339
-52.9186
-53.016
-53.1277
-53.2583
-53.4196
-53.6457
-54.0933
-55.6009
-52.4188
-52.4303
-52.4533
-52.4877
-52.5337
-52.5911
-52.6602
-52.7411
-52.835
-52.9443
-53.0755
-53.2402
-53.4472
-53.6319
-53.0247
-52.2499
-52.2608
-52.2826
-52.3152
-52.3587
-52.413
-52.4782
-52.5546
-52.643
-52.7461
-52.8706
-53.0313
-53.2643
-53.7212
-55.3254
-52.0737
-52.084
-52.1046
-52.1354
-52.1764
-52.2275
-52.2886
-52.3596
-52.4408
-52.5335
-52.6416
-52.7721
-52.9258
-53.0141
-52.1144
-51.8906
-51.9003
-51.9197
-51.9488
-51.9873
-52.0352
-52.092
-52.1573
-52.2304
-52.3105
-52.398
-52.4969
-52.6327
-52.9937
-54.8986
-51.7009
-51.7101
-51.7284
-51.7557
-51.792
-51.8368
-51.8896
-51.9496
-52.015
-52.0827
-52.1475
-52.1961
-52.183
-51.9016
-50.0349
-51.5051
-51.5137
-51.531
-51.5568
-51.5909
-51.633
-51.6824
-51.738
-51.7977
-51.8574
-51.9093
-51.938
-51.9197
-51.9109
-52.8403
-51.3034
-51.3116
-51.3279
-51.3522
-51.3844
-51.4241
-51.4709
-51.5235
-51.5803
-51.6376
-51.6881
-51.7126
-51.6497
-51.2691
-49.4459
-51.0962
-51.1039
-51.1194
-51.1424
-51.1729
-51.2106
-51.2552
-51.3061
-51.3624
-51.4229
-51.4858
-51.5479
-51.6001
-51.6296
-51.6257
-50.8839
-50.8912
-50.9058
-50.9276
-50.9565
-50.9925
-51.0352
-51.0849
-51.1416
-51.2067
-51.2851
-51.3901
-51.5661
-52.0138
-53.8005
-50.6666
-50.6735
-50.6873
-50.708
-50.7354
-50.7696
-50.8106
-50.8586
-50.9146
-50.9816
-51.0666
-51.1831
-51.3433
-51.4685
-50.6129
-50.4446
-50.4512
-50.4643
-50.4839
-50.5099
-50.5423
-50.5811
-50.6266
-50.68
-50.7443
-50.827
-50.9458
-51.1446
-51.6047
-53.4301
-50.2183
-50.2245
-50.2369
-50.2554
-50.28
-50.3105
-50.3469
-50.3891
-50.4377
-50.4942
-50.5632
-50.6528
-50.7645
-50.7932
-49.6489
-49.9877
-49.9936
-50.0054
-50.0229
-50.0462
-50.0748
-50.1086
-50.1471
-50.1897
-50.2358
-50.2858
-50.3444
-50.442
-50.7967
-52.9353
-49.7532
-49.7589
-49.77
-49.7867
-49.8087
-49.8356
-49.8671
-49.9022
-49.9392
-49.9749
-50.0032
-50.0089
-49.9408
-49.5616
-47.3567
-49.515
-49.5203
-49.531
-49.5469
-49.5678
-49.5934
-49.6232
-49.6559
-49.6895
-49.7194
-49.7369
-49.7244
-49.6556
-49.5948
-50.5937
-49.2731
-49.2782
-49.2884
-49.3037
-49.3237
-49.3484
-49.3771
-49.409
-49.4421
-49.4726
-49.4921
-49.4789
-49.3649
-48.8924
-46.7993
-49.0277
-49.0327
-49.0425
-49.0572
-49.0766
-49.1006
-49.129
-49.1612
-49.1965
-49.2336
-49.2706
-49.3035
-49.3229
-49.3157
-49.2738
-48.779
-48.7838
-48.7933
-48.8075
-48.8264
-48.85
-48.8781
-48.9111
-48.9494
-48.9949
-49.0525
-49.1373
-49.2993
-49.7634
-51.7181
-48.5271
-48.5317
-48.5409
-48.5547
-48.5731
-48.5961
-48.624
-48.6573
-48.6974
-48.7477
-48.8161
-48.9173
-49.066
-49.1761
-48.202
-48.272
-48.2765
-48.2854
-48.2987
-48.3166
-48.3389
-48.3661
-48.3986
-48.4381
-48.4882
-48.5572
-48.6645
-48.8595
-49.3419
-51.3252
-48.0139
-48.0182
-48.0269
-48.0398
-48.057
-48.0785
-48.1044
-48.1351
-48.1715
-48.2155
-48.2722
-48.3506
-48.4533
-48.4655
-47.1921
-47.7529
-47.7571
-47.7654
-47.7778
-47.7944
-47.815
-47.8395
-47.8677
-47.8994
-47.9342
-47.9726
-48.0197
-48.1098
-48.4821
-50.807
-47.489
-47.493
-47.5011
-47.5131
-47.5291
-47.5488
-47.572
-47.5979
-47.625
-47.6504
-47.6672
-47.6588
-47.5705
-47.143
-44.7207
-47.2223
-47.2262
-47.234
-47.2457
-47.2612
-47.2803
-47.3025
-47.3271
-47.3519
-47.3726
-47.3795
-47.3533
-47.2665
-47.1891
-48.2672
-46.953
-46.9568
-46.9643
-46.9757
-46.9908
-47.0095
-47.0315
-47.0561
-47.0816
-47.1043
-47.115
-47.09
-46.956
-46.4329
-44.1457
-46.681
-46.6846
-46.692
-46.7031
-46.7179
-46.7364
-46.7587
-46.7844
-46.8133
-46.8444
-46.8754
-46.9022
-46.9156
-46.9019
-46.8522
-46.4064
-46.4099
-46.4171
-46.4279
-46.4424
-46.4608
-46.4834
-46.5106
-46.5435
-46.5844
-46.639
-46.7236
-46.894
-47.3958
-49.5243
-46.1293
-46.1328
-46.1397
-46.1501
-46.1642
-46.1823
-46.2048
-46.2327
-46.268
-46.3148
-46.3818
-46.4853
-46.6424
-46.7601
-45.6987
-45.8498
-45.8531
-45.8597
-45.8697
-45.8833
-45.9007
-45.9225
-45.9498
-45.9846
-46.0313
-46.0993
-46.2097
-46.418
-46.9432
-49.1123
-45.5681
-45.5711
-45.5774
-45.5868
-45.5996
-45.616
-45.6364
-45.6615
-45.6928
-45.7328
-45.7873
-45.8661
-45.9735
-45.9847
-44.5928
-45.2841
-45.2869
-45.2927
-45.3015
-45.3134
-45.3285
-45.347
-45.3691
-45.3948
-45.4243
-45.4584
-45.5025
-45.5958
-46.0006
-48.5472
-44.998
-45.0007
-45.006
-45.0141
-45.0249
-45.0386
-45.0551
-45.074
-45.0942
-45.1127
-45.1223
-45.1049
-45.0016
-44.529
-41.8725
-44.7101
-44.7124
-44.7173
-44.7245
-44.7344
-44.7468
-44.7616
-44.7782
-44.7948
-44.807
-44.8047
-44.7667
-44.664
-44.5739
-45.7524
-44.4204
-44.4225
-44.4267
-44.4332
-44.442
-44.4532
-44.4667
-44.4822
-44.4984
-44.5114
-44.5117
-44.4734
-44.3175
-43.7377
-41.2269
-44.1291
-44.1309
-44.1345
-44.1401
-44.1478
-44.1579
-44.1705
-44.1859
-44.2041
-44.2246
-44.2452
-44.2616
-44.2654
-44.2423
-44.1838
-43.8365
-43.8379
-43.8409
-43.8455
-43.852
-43.8607
-43.8723
-43.8876
-43.9083
-43.9374
-43.9815
-44.0586
-44.2318
-44.7715
-47.1014
-43.5428
-43.5438
-43.546
-43.5495
-43.5545
-43.5615
-43.5714
-43.5856
-43.6067
-43.6396
-43.6943
-43.7889
-43.9435
-44.0574
-42.8806
-43.2482
-43.2488
-43.2501
-43.2522
-43.2554
-43.2603
-43.2676
-43.2788
-43.2968
-43.3267
-43.3791
-43.4773
-43.6837
-44.2393
-46.6019
-42.9531
-42.9532
-42.9534
-42.954
-42.9552
-42.9573
-42.961
-42.9675
-42.9786
-42.9978
-43.0315
-43.0907
-43.1812
-43.1662
-41.6138
-42.6577
-42.6573
-42.6564
-42.6553
-42.6541
-42.653
-42.6525
-42.6529
-42.6548
-42.6588
-42.6658
-42.6823
-42.7518
-43.1605
-45.9012
-42.3625
-42.3615
-42.3595
-42.3565
-42.3527
-42.3483
-42.3432
-42.3373
-42.3296
-42.3173
-42.293
-42.237
-42.0869
-41.5351
-38.6107
-42.0679
-42.0662
-42.063
-42.0581
-42.0517
-42.0439
-42.0345
-42.023
-42.0077
-41.9841
-41.9414
-41.857
-41.701
-41.5569
-42.7747
-41.7742
-41.772
-41.7674
-41.7606
-41.7516
-41.7405
-41.7272
-41.7113
-41.6915
-41.664
-41.6182
-41.5267
-41.3066
-40.6328
-37.9003
-41.482
-41.4791
-41.4732
-41.4644
-41.4528
-41.4384
-41.4216
-41.4024
-41.3808
-41.3562
-41.3262
-41.2857
-41.2273
-41.1381
-41.017
-41.1916
-41.188
-41.1808
-41.1699
-41.1556
-41.138
-41.1176
-41.0951
-41.0722
-41.0518
-41.0406
-41.0571
-41.1693
-41.6651
-44.052
-40.9036
-40.8993
-40.8906
-40.8777
-40.8606
-40.8395
-40.815
-40.7883
-40.7619
-40.7409
-40.7348
-40.7622
-40.8448
-40.8785
-39.5625
-40.6183
-40.6133
-40.6033
-40.5882
-40.5681
-40.5431
-40.5138
-40.4813
-40.448
-40.4192
-40.405
-40.4288
-40.5544
-41.0287
-43.3465
-40.3363
-40.3306
-40.3192
-40.302
-40.2788
-40.2497
-40.2148
-40.1748
-40.1312
-40.087
-40.048
-40.0246
-40.0219
-39.8983
-38.2012
-40.058
-40.0517
-40.0389
-40.0196
-39.9934
-39.9601
-39.9193
-39.8709
-39.8148
-39.7508
-39.6794
-39.6059
-39.5732
-39.8602
-42.422
-39.7838
-39.7769
-39.763
-39.7418
-39.7128
-39.6755
-39.6291
-39.5725
-39.5039
-39.4196
-39.3112
-39.159
-38.9025
-38.2419
-35.2633
-39.5142
-39.5069
-39.4919
-39.4691
-39.4377
-39.397
-39.3459
-39.2825
-39.2041
-39.1047
-38.9724
-38.7844
-38.5123
-38.2329
-39.2008
-39.2495
-39.2418
-39.2261
-39.202
-39.1688
-39.1256
-39.0711
-39.0032
-38.9188
-38.8122
-38.6713
-38.4681
-38.1273
-37.3571
-34.7135
-38.9899
-38.982
-38.9658
-38.941
-38.9067
-38.862
-38.8054
-38.7353
-38.6491
-38.5434
-38.4123
-38.2474
-38.0404
-37.7818
-37.4939
-38.7356
-38.7276
-38.7113
-38.6862
-38.6516
-38.6064
-38.5492
-38.4786
-38.3931
-38.2917
-38.1756
-38.056
-37.9893
-38.2264
-40.0778
-38.4866
-38.4787
-38.4626
-38.4379
-38.4036
-38.3588
-38.3022
-38.2324
-38.1483
-38.0499
-37.9401
-37.828
-37.7273
-37.5493
-36.2252
-38.2428
-38.2352
-38.2197
-38.1958
-38.1627
-38.1193
-38.0643
-37.9962
-37.9135
-37.8157
-37.705
-37.5919
-37.519
-37.6675
-39.1823
-38.004
-37.9969
-37.9823
-37.9598
-37.9286
-37.8877
-37.8356
-37.7702
-37.6892
-37.5901
-37.4702
-37.3281
-37.1568
-36.8365
-35.2895
-37.77
-37.7634
-37.75
-37.7295
-37.7011
-37.6638
-37.6159
-37.555
-37.4777
-37.3785
-37.2498
-37.0844
-36.898
-36.8569
-38.2315
-37.5402
-37.5343
-37.5225
-37.5044
-37.4795
-37.4469
-37.4051
-37.3515
-37.2815
-37.187
-37.0535
-36.8553
-36.5383
-35.8936
-33.7087
-37.3142
-37.3092
-37.299
-37.2836
-37.2629
-37.2362
-37.2025
-37.1595
-37.1024
-37.0222
-36.901
-36.7087
-36.4061
-35.9993
-36.0955
-37.0915
-37.0872
-37.0788
-37.0664
-37.0501
-37.0302
-37.0063
-36.9773
-36.9396
-36.8853
-36.7965
-36.6387
-36.3463
-35.7551
-34.2306
-36.8714
-36.8679
-36.861
-36.8514
-36.8397
-36.8268
-36.8137
-36.8012
-36.7886
-36.7719
-36.7388
-36.6622
-36.4939
-36.1583
-35.6334
-36.6535
-36.6505
-36.6449
-36.6376
-36.6297
-36.6232
-36.6206
-36.6252
-36.6405
-36.6694
-36.7098
-36.7492
-36.7577
-36.6924
-36.6756
-36.4373
-36.4346
-36.4298
-36.4238
-36.4185
-36.4167
-36.4225
-36.4418
-36.4833
-36.5584
-36.6803
-36.8578
-37.0728
-37.1922
-36.7993
-36.2227
-36.2199
-36.215
-36.2092
-36.2047
-36.2048
-36.2148
-36.2432
-36.3028
-36.4145
-36.6107
-36.9402
-37.4544
-38.0472
-37.565
-36.0097
-36.0065
-36.0006
-35.9935
-35.9873
-35.9857
-35.9945
-36.0228
-36.0863
-36.2114
-36.4472
-36.8943
-37.7816
-39.6479
-43.7445
-35.7986
-35.7945
-35.7868
-35.7768
-35.7665
-35.7592
-35.7604
-35.7783
-35.827
-35.9308
-36.1356
-36.5429
-37.4288
-39.6993
-47.0284
-48.7577
-41.1876
-38.809
-37.8667
-37.4235
-37.1934
-37.07
-37.0056
-36.975
-36.9637
-36.9629
-36.967
-36.9725
-36.9772
-36.9799
-45.7563
-41.1582
-39.145
-38.1944
-37.71
-37.4485
-37.304
-37.2252
-37.1847
-37.1662
-37.1602
-37.1606
-37.1635
-37.1666
-37.1684
-38.5524
-39.3331
-38.7433
-38.1984
-37.8405
-37.6218
-37.4923
-37.4185
-37.3789
-37.3599
-37.3528
-37.3521
-37.354
-37.3564
-37.358
-38.2099
-38.459
-38.3105
-38.0725
-37.8731
-37.7325
-37.642
-37.588
-37.5587
-37.5451
-37.5408
-37.5414
-37.544
-37.5466
-37.5482
-37.6984
-37.8602
-37.9403
-37.9197
-37.8635
-37.808
-37.7664
-37.7406
-37.7276
-37.7236
-37.725
-37.729
-37.7335
-37.7372
-37.7393
-36.7495
-37.3175
-37.6403
-37.7913
-37.8524
-37.8732
-37.8798
-37.8843
-37.8903
-37.8982
-37.9071
-37.9158
-37.9233
-37.9287
-37.9315
-35.7391
-36.9444
-37.4598
-37.7251
-37.8683
-37.9476
-37.9949
-38.0269
-38.0516
-38.0719
-38.0891
-38.1033
-38.1142
-38.1216
-38.1254
-36.9673
-37.0496
-37.4533
-37.7434
-37.9274
-38.0437
-38.1205
-38.1749
-38.2157
-38.2477
-38.2729
-38.2926
-38.3072
-38.3168
-38.3217
-35.0705
-36.931
-37.5259
-37.8351
-38.0325
-38.1667
-38.2619