/*--------------------------------*- C++ -*----------------------------------*\
| =========                 |                                                 |
| \\      /  F ield         | OpenFOAM: The Open Source CFD Toolbox           |
|  \\    /   O peration     | Version:  5.x                                   |
|   \\  /    A nd           | Web:      www.OpenFOAM.org                      |
|    \\/     M anipulation  |                                                 |
\*---------------------------------------------------------------------------*/
FoamFile
{
    version     2.0;
    format      ascii;
    class       volScalarField;
    location    "4.7";
    object      gradTy;
}
// * * * * * * * * * * * * * * * * * * * * * * * * * * * * * * * * * * * * * //

dimensions      [0 -1 0 1 0 0 0];

internalField   nonuniform List<scalar> 
6300
(
32274.3
32222.8
32171.4
32120
32068.7
32017.4
31966.3
31915.3
31864.4
31813.7
31763.1
31712.8
31662.6
31612.7
31563
-0.0139578
-0.0419363
-0.0700908
-0.0985004
-0.127175
-0.15603
-0.184866
-0.213364
-0.241081
-0.267492
-0.292049
-0.314293
-0.333993
-0.351302
-0.366881
-0.0231838
-0.0696842
-0.116534
-0.163882
-0.211771
-0.260085
-0.308508
-0.356498
-0.403285
-0.447919
-0.489369
-0.526709
-0.55938
-0.587493
-0.612119
-0.0322946
-0.0970895
-0.162466
-0.228702
-0.295918
-0.364004
-0.432551
-0.500799
-0.567606
-0.631489
-0.690752
-0.743745
-0.789274
-0.82713
-0.858631
-0.0412063
-0.123929
-0.207556
-0.292564
-0.379221
-0.467491
-0.556929
-0.64658
-0.734895
-0.819729
-0.898458
-0.968298
-1.0269
-1.07321
-1.10844
-0.0497924
-0.149842
-0.251244
-0.354755
-0.460887
-0.569785
-0.681071
-0.793669
-0.905637
-1.01405
-1.11503
-1.20406
-1.27678
-1.33031
-1.36498
-0.0579136
-0.174402
-0.292828
-0.41433
-0.539796
-0.669703
-0.803911
-0.9414
-1.07995
-1.21582
-1.34355
-1.45614
-1.54587
-1.60625
-1.63507
-0.0653785
-0.197034
-0.331346
-0.469958
-0.614284
-0.765339
-0.923494
-1.0881
-1.25696
-1.42574
-1.58724
-1.73109
-1.84431
-1.9137
-1.93105
-0.0719477
-0.217014
-0.365574
-0.519884
-0.682054
-0.853894
-1.03665
-1.23055
-1.43408
-1.64293
-1.84855
-2.03664
-2.18648
-2.27311
-2.27505
-0.0773474
-0.233504
-0.394056
-0.561959
-0.740166
-0.931546
-1.13867
-1.36337
-1.60588
-1.86334
-2.12735
-2.38034
-2.59175
-2.71701
-2.70683
-0.0812857
-0.245601
-0.415193
-0.593736
-0.785113
-0.993464
-1.22313
-1.47837
-1.76269
-2.07717
-2.41707
-2.76548
-3.08301
-3.29614
-3.29861
-0.0834813
-0.252422
-0.427386
-0.612685
-0.813097
-1.03408
-1.282
-1.56429
-1.88932
-2.26551
-2.69819
-3.18136
-3.67851
-4.08583
-4.18776
-0.0836994
-0.253224
-0.429249
-0.616529
-0.820517
-1.04777
-1.30651
-1.60744
-1.96474
-2.39725
-2.92867
-3.58311
-4.36376
-5.18095
-5.66206
-0.0817927
-0.24753
-0.419862
-0.603676
-0.804685
-1.02997
-1.28884
-1.59418
-1.96488
-2.42998
-3.03603
-3.85859
-5.01252
-6.6124
-8.39483
-0.0777353
-0.235245
-0.399001
-0.57364
-0.764587
-0.97861
-1.22469
-1.51554
-1.87053
-2.32163
-2.92677
-3.80271
-5.21561
-7.86168
-13.8505
31517.7
31476.6
31435.7
31395.1
31354.6
31314.3
31274.2
31234.3
31194.7
31155.4
31116.3
31077.6
31039.1
31001
30963.3
30925.9
30888.8
30852.2
30816
30780.1
30744.6
30709.6
30674.9
30640.6
30606.7
30573.2
30540
30507.2
30474.7
30442.6
30410.7
30379.2
30347.9
30316.9
30286.2
30255.7
30225.5
30195.5
30165.8
30136.3
30107.1
30078
30049.2
30020.6
29992.3
29964.2
29936.3
29908.6
29881.1
29853.9
29826.9
29800.1
29773.4
29747
29720.8
29694.7
29668.7
29643
29617.3
29591.8
29566.3
29541
29515.7
29490.5
29465.4
29440.3
29415.3
29390.3
29365.3
29340.3
29315.3
29290.3
29265.2
29240.2
29215
29189.9
29164.6
29139.3
29113.8
29088.3
29062.7
29036.9
29011
28985
28958.8
28932.4
28905.9
28879.2
28852.3
28825.3
-0.380688
-0.393986
-0.409144
-0.427257
-0.449235
-0.47564
-0.506563
-0.541579
-0.579778
-0.619885
-0.660437
-0.699964
-0.737159
-0.770976
-0.800663
-0.825722
-0.845838
-0.860802
-0.870471
-0.87476
-0.873674
-0.867358
-0.856125
-0.840464
-0.821011
-0.798504
-0.773727
-0.747474
-0.720527
-0.693637
-0.667509
-0.642772
-0.619942
-0.599387
-0.581308
-0.565753
-0.552656
-0.541885
-0.533284
-0.526694
-0.521934
-0.518752
-0.51678
-0.515502
-0.514252
-0.512269
-0.508776
-0.503078
-0.494647
-0.483175
-0.468593
-0.451039
-0.430812
-0.408316
-0.384011
-0.358381
-0.33191
-0.305056
-0.278223
-0.251725
-0.225761
-0.200399
-0.175595
-0.151227
-0.127152
-0.103244
-0.0794265
-0.0556709
-0.0319731
-0.00832453
0.01531
0.038993
0.0627935
0.086754
0.11086
0.135027
0.159109
0.182931
0.206321
0.22913
0.251236
0.272511
0.292781
0.311792
0.329181
0.344494
0.357222
0.366855
0.372948
0.375171
-0.63345
-0.653878
-0.677432
-0.706204
-0.741966
-0.785847
-0.83808
-0.897899
-0.963603
-1.0328
-1.10273
-1.17071
-1.23439
-1.29197
-1.34226
-1.38455
-1.41843
-1.44361
-1.45987
-1.46702
-1.46499
-1.45398
-1.43448
-1.40738
-1.37379
-1.33504
-1.29248
-1.24749
-1.20139
-1.15546
-1.11091
-1.06887
-1.03024
-0.995663
-0.965458
-0.939645
-0.918031
-0.900328
-0.886255
-0.875571
-0.868043
-0.863333
-0.860878
-0.859807
-0.858937
-0.856869
-0.852154
-0.843498
-0.829933
-0.810927
-0.786401
-0.756665
-0.722307
-0.684075
-0.642789
-0.599296
-0.55444
-0.509032
-0.463801
-0.419315
-0.375921
-0.33371
-0.292549
-0.252157
-0.212217
-0.172482
-0.132823
-0.0932265
-0.0537336
-0.0143631
0.0249417
0.0643176
0.103932
0.143903
0.184229
0.22475
0.265179
0.30517
0.344402
0.382632
0.419696
0.455447
0.489661
0.521941
0.55167
0.578028
0.600069
0.616845
0.627531
0.631533
-0.884591
-0.90914
-0.938074
-0.974949
-1.02287
-1.08388
-1.15853
-1.2456
-1.34226
-1.44449
-1.54771
-1.64751
-1.74024
-1.82332
-1.89525
-1.95535
-2.00338
-2.03912
-2.06225
-2.07234
-2.0691
-2.05264
-2.02366
-1.98347
-1.93387
-1.87689
-1.8146
-1.74896
-1.68185
-1.61511
-1.55056
-1.48989
-1.43454
-1.38549
-1.34313
-1.30733
-1.27762
-1.25339
-1.23419
-1.21975
-1.20994
-1.20451
-1.20283
-1.20367
-1.2052
-1.20513
-1.20106
-1.19084
-1.17291
-1.14648
-1.11157
-1.06881
-1.01924
-0.964092
-0.904609
-0.842039
-0.777629
-0.712622
-0.648173
-0.585201
-0.524246
-0.465384
-0.408272
-0.352309
-0.296866
-0.241488
-0.186009
-0.130514
-0.0752001
-0.0201912
0.0345857
0.0894117
0.144667
0.200653
0.257423
0.314711
0.371983
0.428603
0.484023
0.537907
0.590137
0.640686
0.689411
0.735845
0.779093
0.817853
0.850572
0.875681
0.891818
0.898013
-1.13451
-1.15824
-1.18744
-1.22797
-1.2851
-1.3625
-1.46131
-1.57972
-1.71315
-1.855
-1.99787
-2.13478
-2.2603
-2.37103
-2.46557
-2.54387
-2.60635
-2.65316
-2.68378
-2.69724
-2.69264
-2.66973
-2.62937
-2.57353
-2.50499
-2.42683
-2.34196
-2.25298
-2.16224
-2.07209
-1.98507
-1.90372
-1.83027
-1.76616
-1.71184
-1.66676
-1.62979
-1.59972
-1.57577
-1.55777
-1.54604
-1.54082
-1.54167
-1.54707
-1.55428
-1.55968
-1.55935
-1.54981
-1.52864
-1.49478
-1.44855
-1.39126
-1.32473
-1.25085
-1.17137
-1.08792
-1.00217
-0.915892
-0.830891
-0.748652
-0.670018
-0.594989
-0.522782
-0.452149
-0.381845
-0.311058
-0.239623
-0.167937
-0.0966124
-0.0260595
0.0437954
0.113534
0.184009
0.255942
0.329553
0.404385
0.479428
0.55348
0.625581
0.695298
0.762744
0.828309
0.892224
0.954116
1.01277
1.06617
1.11184
1.14726
1.17027
1.17939
-1.38432
-1.3994
-1.42044
-1.45699
-1.51807
-1.61021
-1.73579
-1.89215
-2.07184
-2.26401
-2.45654
-2.6384
-2.80158
-2.94201
-3.05924
-3.15512
-3.23187
-3.29046
-3.32997
-3.34812
-3.3425
-3.31193
-3.25736
-3.18186
-3.08995
-2.98639
-2.87524
-2.75954
-2.64175
-2.52457
-2.41141
-2.30619
-2.21253
-2.13274
-2.06723
-2.01452
-1.97205
-1.93727
-1.90878
-1.88679
-1.87279
-1.86839
-1.87399
-1.88788
-1.906
-1.92249
-1.93091
-1.92556
-1.90265
-1.86093
-1.80149
-1.72704
-1.64082
-1.54571
-1.44389
-1.33716
-1.22748
-1.11736
-1.00966
-0.906942
-0.810628
-0.720558
-0.63505
-0.551542
-0.467547
-0.381583
-0.29362
-0.204861
-0.116932
-0.0309385
0.0531575
0.136585
0.221238
0.308803
0.399913
0.493749
0.588292
0.68116
0.770568
0.855959
0.938056
1.01831
1.09795
1.17705
1.25401
1.32563
1.38787
1.43668
1.46873
1.48179
-1.6377
-1.63191
-1.63102
-1.6506
-1.70619
-1.80965
-1.96584
-2.17086
-2.41245
-2.67239
-2.93044
-3.16878
-3.3755
-3.54626
-3.68353
-3.79378
-3.8834
-3.95509
-4.0068
-4.03309
-4.02813
-3.98856
-3.91533
-3.81367
-3.69152
-3.55675
-3.41493
-3.26893
-3.12022
-2.97112
-2.82616
-2.69184
-2.57464
-2.47862
-2.40403
-2.34739
-2.30306
-2.26559
-2.23225
-2.20415
-2.18557
-2.18138
-2.1942
-2.22244
-2.25987
-2.29678
-2.32215
-2.32641
-2.30361
-2.25243
-2.17587
-2.0796
-1.96956
-1.85007
-1.72332
-1.59047
-1.45327
-1.31518
-1.18111
-1.05585
-0.942086
-0.839398
-0.744282
-0.651476
-0.555928
-0.454833
-0.348615
-0.240438
-0.134316
-0.0329363
0.0636305
0.15802
0.254418
0.356701
0.466489
0.582227
0.699702
0.813955
0.921467
1.02149
1.11615
1.2093
1.30455
1.40318
1.50303
1.59872
1.68334
1.75033
1.79463
1.81306
-1.90277
-1.8572
-1.8119
-1.79212
-1.82507
-1.93284
-2.12519
-2.39654
-2.72623
-3.08313
-3.43232
-3.74427
-4.00078
-4.1983
-4.34622
-4.46167
-4.56025
-4.64797
-4.71971
-4.76254
-4.76304
-4.7131
-4.61365
-4.47441
-4.31065
-4.13664
-3.96003
-3.78159
-3.59862
-3.41105
-3.22493
-3.05217
-2.90558
-2.79294
-2.71428
-2.66186
-2.62348
-2.58725
-2.54744
-2.5071
-2.47687
-2.46915
-2.49146
-2.54302
-2.61378
-2.68695
-2.74303
-2.76551
-2.74467
-2.67974
-2.5779
-2.45123
-2.31121
-2.16414
-2.01083
-1.84932
-1.67962
-1.50649
-1.33919
-1.18749
-1.05692
-0.946656
-0.849517
-0.754697
-0.651647
-0.53482
-0.405802
-0.272441
-0.144268
-0.0274119
0.0778207
0.177135
0.279686
0.394335
0.525027
0.668716
0.816253
0.956937
1.08362
1.19519
1.29688
1.39771
1.5067
1.62797
1.75841
1.88811
2.00455
2.09699
2.15807
2.18378
-2.19617
-2.08181
-1.95567
-1.85729
-1.83566
-1.93362
-2.17007
-2.53747
-3.00007
-3.50414
-3.98701
-4.39871
-4.7101
-4.92082
-5.05468
-5.15286
-5.25168
-5.36278
-5.47315
-5.55179
-5.56943
-5.50774
-5.36804
-5.16918
-4.94328
-4.71895
-4.50643
-4.29941
-4.08224
-3.84751
-3.60303
-3.37339
-3.18618
-3.05683
-2.98524
-2.95459
-2.93927
-2.91252
-2.86185
-2.79393
-2.73418
-2.71206
-2.74503
-2.83433
-2.96259
-3.10013
-3.2107
-3.26535
-3.24762
-3.15859
-3.01407
-2.8405
-2.6614
-2.48559
-2.30858
-2.11837
-1.90936
-1.68785
-1.47328
-1.28718
-1.14101
-1.03353
-0.949948
-0.868322
-0.765776
-0.630957
-0.467869
-0.295625
-0.136607
-0.00386102
0.101796
0.19283
0.288748
0.410055
0.566003
0.750784
0.943754
1.12113
1.26854
1.38412
1.4798
1.5753
1.69204
1.84043
2.01566
2.19736
2.36104
2.48949
2.57311
2.60859
-2.55065
-2.32303
-2.05909
-1.81153
-1.67359
-1.7344
-2.02571
-2.54056
-3.21336
-3.95484
-4.64327
-5.19669
-5.56341
-5.753
-5.8135
-5.84199
-5.9243
-6.07745
-6.27106
-6.42762
-6.48875
-6.4134
-6.20629
-5.9015
-5.57221
-5.28278
-5.04343
-4.83029
-4.5896
-4.29644
-3.95818
-3.63186
-3.38182
-3.23588
-3.19553
-3.22351
-3.26982
-3.27046
-3.19936
-3.06719
-2.93553
-2.87383
-2.91566
-3.06769
-3.29618
-3.5503
-3.75702
-3.86756
-3.85136
-3.7155
-3.49021
-3.23585
-3.00502
-2.80693
-2.62348
-2.41269
-2.15527
-1.85741
-1.56457
-1.32761
-1.16762
-1.08428
-1.04584
-1.01037
-0.924692
-0.766141
-0.541478
-0.298158
-0.0895398
0.0602327
0.148327
0.202966
0.262697
0.377319
0.56685
0.822424
1.09503
1.32975
1.50054
1.60288
1.66412
1.72342
1.83291
2.0153
2.26459
2.53351
2.76915
2.94738
3.05827
3.10754
-3.02823
-2.61634
-2.13889
-1.60803
-1.22554
-1.20351
-1.55975
-2.31643
-3.32799
-4.48216
-5.49426
-6.26381
-6.67216
-6.77145
-6.61882
-6.45406
-6.49534
-6.73429
-7.12276
-7.44133
-7.60512
-7.50931
-7.18576
-6.66967
-6.14435
-5.77506
-5.5433
-5.40143
-5.17311
-4.81096
-4.29676
-3.78116
-3.42821
-3.26354
-3.30813
-3.46671
-3.66682
-3.73242
-3.62556
-3.34045
-3.03688
-2.88729
-2.92837
-3.1917
-3.59363
-4.06949
-4.44262
-4.65302
-4.62818
-4.40196
-4.00895
-3.59808
-3.30222
-3.10795
-2.97848
-2.77485
-2.46017
-2.02041
-1.57611
-1.25786
-1.08453
-1.07103
-1.1381
-1.22537
-1.18915
-0.997118
-0.64251
-0.251261
0.0417442
0.212625
0.242519
0.205275
0.157127
0.236274
0.47218
0.869159
1.3005
1.63007
1.83077
1.88046
1.85092
1.79895
1.86852
2.09356
2.485
2.91736
3.2597
3.50196
3.63187
3.70716
-3.74508
-3.00427
-2.29599
-1.19154
-0.259478
-0.129288
-0.518715
-1.72698
-3.23906
-5.216
-6.69659
-7.8532
-8.22829
-8.15511
-7.44418
-6.77216
-6.78453
-7.17877
-8.07811
-8.68104
-9.09852
-8.93647
-8.44592
-7.45468
-6.49542
-6.07306
-5.91753
-6.10091
-5.95328
-5.54842
-4.64146
-3.7004
-3.20773
-2.99416
-3.26093
-3.65451
-4.26197
-4.44725
-4.31299
-3.64491
-2.92117
-2.63092
-2.62578
-3.12093
-3.78941
-4.74143
-5.36739
-5.78208
-5.69983
-5.33343
-4.55824
-3.79955
-3.45791
-3.32044
-3.44504
-3.30168
-2.94986
-2.19464
-1.41073
-0.983972
-0.775793
-0.946237
-1.20566
-1.62255
-1.68221
-1.46638
-0.800382
-0.0668818
0.345007
0.564245
0.429664
0.219654
-0.135294
-0.133939
0.142223
0.863195
1.64941
2.113
2.37556
2.26932
2.06731
1.69682
1.6777
1.92977
2.64414
3.42857
3.89222
4.21626
4.28215
4.44596
-4.94985
-3.34588
-3.02392
-0.526636
1.86178
1.69376
1.70198
-0.699518
-2.48027
-6.66411
-8.36495
-10.5674
-10.4294
-10.4565
-8.21282
-6.10396
-6.52309
-6.89521
-9.45959
-10.1871
-11.4257
-10.8359
-10.4262
-8.19274
-6.07244
-5.98586
-5.8028
-7.27615
-7.10291
-7.00794
-5.03422
-2.9729
-2.58427
-2.03205
-3.0301
-3.53324
-5.464
-5.62113
-5.76804
-4.02839
-2.18009
-1.96281
-1.60163
-2.79941
-3.5757
-5.88174
-6.59519
-7.62554
-7.17945
-6.85236
-5.08259
-3.39926
-3.31842
-3.15433
-4.29624
-4.12747
-4.01924
-2.40901
-0.729903
-0.394187
0.0793382
-0.69213
-1.04525
-2.53293
-2.5708
-2.58276
-1.05436
0.581662
0.926728
1.42644
0.726513
0.443838
-0.939711
-0.898812
-0.827261
0.764222
2.46376
2.88629
3.45233
2.79697
2.52721
1.08959
1.09724
1.10104
2.70309
4.40238
4.7264
5.30297
4.79213
5.4224
-7.53262
-1.84119
-6.88426
0.295154
7.66458
3.26349
7.3932
-0.565415
1.73951
-11.6873
-9.31038
-16.6515
-12.3919
-16.0272
-8.78667
-1.79479
-6.32862
-3.45403
-13.4854
-10.9566
-16.3848
-12.4751
-15.032
-8.76695
-2.71999
-6.0367
-3.30187
-10.8215
-8.13887
-11.1719
-5.55214
0.164327
-2.19533
1.16354
-3.51088
-1.35513
-9.219
-6.80863
-9.93862
-4.56721
0.910806
-1.50078
1.66858
-3.08364
-1.15799
-9.31418
-7.36546
-11.5939
-8.4865
-10.4475
-5.48124
-0.690169
-3.29757
-1.1064
-7.03358
-4.86488
-7.25027
-2.72136
1.8866
-0.00166219
2.72842
-1.03925
0.750091
-5.52983
-3.49552
-5.91604
-1.4622
3.09031
1.28686
4.01717
0.423625
2.25434
-3.79421
-1.70678
-3.98437
0.510634
5.11799
3.45384
6.28879
2.77029
4.66972
-1.59792
0.523151
-2.02829
2.6228
7.35733
5.19763
7.95625
3.65966
7.17264
-17.1813
15.1215
-28.3447
0.843334
30.4167
-7.4515
30.4913
-15.2112
28.6126
-39.4683
3.73764
-39.4414
-2.98664
-37.2598
-9.0033
19.1106
-16.8032
18.571
-35.599
-0.268742
-34.7918
-4.80334
-32.3427
-9.02821
14.115
-14.803
13.9643
-29.0596
-0.945514
-27.7972
-6.21071
14.9298
-10.0425
15.9257
-13.8286
15.2498
-27.7704
-0.0194964
-26.3528
-5.26113
15.3611
-9.07694
16.3443
-12.9857
15.776
-27.2994
0.757685
-26.1274
-2.49667
-24.0198
-5.62925
12.6711
-10.1883
12.6303
-21.4306
0.953954
-20.4395
-3.14912
13.856
-6.2611
14.7326
-9.38997
14.1636
-20.5006
1.99323
-19.1498
-2.01346
14.7502
-4.88293
15.7129
-7.69144
15.4097
-18.3656
3.7697
-16.895
0.0942205
16.8022
-2.45825
18.2732
-5.05911
18.5719
-16.366
6.67666
-15.53
2.42166
20.2393
-1.41413
20.7683
-8.71926
13.7737
28795.4
28762.5
28729.3
28695.9
28662.3
28628.4
28594.4
28560.1
28525.8
28491.3
28456.6
28421.9
28387.1
28352.3
28317.4
0.373163
0.365182
0.351759
0.33352
0.311271
0.285883
0.258199
0.228966
0.198795
0.168151
0.137353
0.106598
0.0759784
0.0455101
0.0151556
0.628232
0.614574
0.59153
0.560261
0.522227
0.478986
0.432022
0.382624
0.331828
0.280403
0.228862
0.177506
0.126462
0.0757283
0.0252159
0.893366
0.873365
0.839538
0.793772
0.738392
0.675815
0.608282
0.537685
0.4655
0.392779
0.320195
0.248108
0.176639
0.105728
0.0351977
1.17334
1.1459
1.09941
1.03683
0.961688
0.877543
0.787558
0.694301
0.599684
0.505002
0.411022
0.318093
0.22626
0.135349
0.0450461
1.47417
1.43749
1.37537
1.29242
1.19396
1.08508
0.970075
0.852252
0.733916
0.61651
0.500784
0.386973
0.274954
0.164363
0.0546837
1.80341
1.75456
1.67218
1.56355
1.43664
1.29869
1.15536
1.01068
0.867197
0.726324
0.588619
0.454053
0.322217
0.192464
0.0640082
2.17119
2.10534
1.99537
1.85304
1.69044
1.51767
1.34196
1.16785
0.997831
0.832949
0.673301
0.518394
0.36739
0.219264
0.0728918
2.5915
2.50062
2.35125
2.16308
1.95462
1.7397
1.52695
1.32088
1.12328
0.934303
0.753221
0.578819
0.409679
0.244304
0.081185
3.08459
2.95488
2.74633
2.49385
2.2257
1.95989
1.70541
1.46546
1.24006
1.02773
0.82643
0.633963
0.448189
0.267082
0.0887254
3.68214
3.48785
3.18527
2.8403
2.49483
2.16914
1.8696
1.5956
1.34377
1.11011
0.89078
0.682392
0.482018
0.287102
0.0953546
4.44524
4.12796
3.66568
3.18629
2.74395
2.35242
2.00847
1.70368
1.42937
1.17816
0.944167
0.722789
0.510376
0.303944
0.100942
5.52542
4.91355
4.16367
3.49456
2.94183
2.48809
2.10828
1.78138
1.49192
1.229
0.984931
0.754209
0.532744
0.317354
0.105412
7.33057
5.8372
4.58206
3.68658
3.04061
2.54986
2.15529
1.8217
1.52796
1.26098
1.01234
0.776361
0.549028
0.327311
0.108763
10.8007
6.52188
4.64055
3.629
2.98416
2.51559
2.14142
1.82224
1.53726
1.27463
1.02707
0.789856
0.559689
0.334096
0.111087
-0.0722983
-0.218719
-0.370711
-0.532361
-0.708373
-0.904477
-1.12805
-1.38921
-1.70276
-2.09231
-2.59935
-3.30636
-4.40293
-6.40174
-10.9226
-0.0659577
-0.199419
-0.337581
-0.483806
-0.641824
-0.815919
-1.01117
-1.23372
-1.49105
-1.79178
-2.14359
-2.54193
-2.91853
-2.90581
-0.717837
-0.0585461
-0.176859
-0.298858
-0.427074
-0.564123
-0.71268
-0.875318
-1.05405
-1.2491
-1.45573
-1.6556
-1.79281
-1.70433
-0.920079
1.86657
-0.0502866
-0.151741
-0.255825
-0.364219
-0.478447
-0.599671
-0.728274
-0.862982
-0.999026
-1.1243
-1.21129
-1.20076
-0.972845
-0.325347
0.836459
-0.0414147
-0.1248
-0.209802
-0.297323
-0.387926
-0.481549
-0.576983
-0.670928
-0.756306
-0.819328
-0.834808
-0.760076
-0.532172
-0.0880238
0.543243
-0.0321583
-0.0967381
-0.162038
-0.228296
-0.295322
-0.362188
-0.426732
-0.484789
-0.529001
-0.547221
-0.520985
-0.426124
-0.241414
0.0192814
0.211218
-0.0227203
-0.0681782
-0.113612
-0.158742
-0.202841
-0.244453
-0.281001
-0.308252
-0.319667
-0.305835
-0.254742
-0.154731
-0.00332177
0.174334
0.305848
-0.0132701
-0.0396343
-0.0653974
-0.0899048
-0.112089
-0.130243
-0.141738
-0.142716
-0.127824
-0.0902097
-0.0223819
0.0809286
0.216595
0.361452
0.446007
-0.0039412
-0.0115053
-0.0180506
-0.0226764
-0.0241332
-0.0206545
-0.00978053
0.0117907
0.0482546
0.104506
0.185406
0.294134
0.430169
0.590473
0.793756
0.00516852
0.0159206
0.0279693
0.0423584
0.0604041
0.0838082
0.114754
0.155954
0.210597
0.282147
0.373917
0.488405
0.626925
0.789677
0.969471
0.0139925
0.0424514
0.072372
0.104863
0.141231
0.183047
0.232181
0.290788
0.361202
0.445773
0.546684
0.66602
0.806888
0.97708
1.20089
0.0224899
0.0679739
0.114999
0.164686
0.218289
0.27722
0.343049
0.417435
0.501987
0.598074
0.706686
0.828716
0.966517
1.12729
1.31994
0.0306398
0.0924336
0.155788
0.221804
0.291661
0.366622
0.447995
0.53704
0.634778
0.741696
0.857398
0.980499
1.11022
1.2554
1.47033
0.0384356
0.115817
0.19474
0.276269
0.361508
0.451591
0.547636
0.650631
0.761212
0.87924
1.003
1.12772
1.24324
1.33512
1.43011
0.0458798
0.138137
0.231896
0.328174
0.42801
0.532443
0.642477
0.758981
0.882498
1.01282
1.14798
1.28139
1.39269
1.41272
1.06017
0.0529807
0.159424
0.267314
0.377627
0.49134
0.609432
0.732853
0.862487
0.999081
1.14308
1.29422
1.45045
1.60558
1.74911
1.91788
0.0597499
0.179713
0.301065
0.424736
0.551655
0.682749
0.818944
0.961193
1.11055
1.2684
1.43695
1.62035
1.82655
2.06803
2.33508
0.0662003
0.199045
0.33322
0.469611
0.609097
0.752553
0.900865
1.05499
1.21616
1.38632
1.56942
1.77447
2.0231
2.36928
2.95948
0.0723454
0.217462
0.363852
0.512359
0.663809
0.819016
0.978782
1.14395
1.31555
1.49528
1.6867
1.89841
2.15196
2.50114
3.07545
0.0781982
0.235003
0.393031
0.553084
0.715942
0.882348
1.05299
1.22847
1.40934
1.59616
1.78994
1.99335
2.2145
2.47673
2.83306
0.0837704
0.251706
0.42082
0.591886
0.765643
0.942778
1.12387
1.30929
1.49902
1.69226
1.88655
2.07607
2.24855
2.38707
2.54479
0.0890722
0.2676
0.447273
0.628843
0.813031
1.0005
1.19179
1.38716
1.58632
1.78766
1.98654
2.17072
2.30622
2.28418
1.67235
0.0941115
0.282709
0.472428
0.664009
0.858175
1.05561
1.25691
1.46245
1.67214
1.8848
2.09681
2.29928
2.47334
2.59097
2.69778
0.0988946
0.297051
0.49631
0.697408
0.901086
1.10808
1.31913
1.5349
1.75594
1.98244
2.21376
2.44767
2.67971
2.90537
3.12624
0.103427
0.31064
0.518935
0.729046
0.941731
1.15779
1.37812
1.60374
1.836
2.07677
2.32898
2.59748
2.8906
3.2232
3.63201
0.107714
0.32349
0.54032
0.758927
0.98007
1.20459
1.43347
1.66803
1.91019
2.1632
2.43294
2.7303
3.07416
3.48823
3.94713
0.111762
0.335622
0.560495
0.787078
1.01611
1.2484
1.48495
1.72709
1.9769
2.23807
2.5178
2.83093
3.20905
3.72226
4.54406
0.115582
0.347064
0.579506
0.813564
1.04992
1.28931
1.5326
1.78087
2.03576
2.3001
2.57956
2.88657
3.25023
3.74215
4.54958
0.119185
0.357853
0.59742
0.838488
1.08167
1.32758
1.57684
1.83012
2.08812
2.35169
2.62226
2.903
3.20243
3.54306
3.96141
0.122585
0.368034
0.614316
0.861982
1.11156
1.36356
1.61836
1.87616
2.13665
2.39847
2.65799
2.90659
3.1261
3.29014
3.46361
0.125797
0.377651
0.630277
0.884181
1.13984
1.39765
1.65787
1.92038
2.1843
2.44692
2.70138
2.93054
3.08836
3.03083
2.19474
0.128835
0.386746
0.645378
0.905202
1.16666
1.43012
1.69583
1.9637
2.2329
2.50108
2.76245
3.00417
3.20022
3.31232
3.39356
0.13171
0.395356
0.659679
0.925127
1.19213
1.4611
1.73237
2.00614
2.28228
2.56001
2.83724
3.10966
3.37046
3.61539
3.86134
0.134433
0.403512
0.673227
0.94401
1.2163
1.49054
1.76725
2.047
2.33061
2.61933
2.91545
3.22339
3.55183
3.91788
4.36218
0.137014
0.411241
0.686063
0.961889
1.23915
1.51834
1.80007
2.08526
2.37545
2.67358
2.98554
3.323
3.7072
4.16619
4.67688
0.139464
0.418574
0.69823
0.978811
1.26072
1.54443
1.83057
2.12011
2.41483
2.71828
3.03801
3.39031
3.81076
4.37875
5.28865
0.141794
0.425544
0.709785
0.994852
1.28109
1.5689
1.85878
2.15144
2.44821
2.75176
3.06795
3.41045
3.81196
4.35405
5.25416
0.144015
0.43219
0.720796
1.01012
1.30043
1.59201
1.88511
2.17999
2.47696
2.7765
3.07974
3.38978
3.71564
4.08091
4.51869
0.146143
0.438554
0.731341
1.02474
1.31895
1.61412
1.91027
2.20716
2.50398
2.79875
3.0869
3.35831
3.59202
3.7576
3.92695
0.148188
0.444676
0.741492
1.03884
1.33686
1.63563
1.935
2.23444
2.53249
2.82566
3.10579
3.35319
3.5158
3.43183
2.47067
0.150162
0.450587
0.751309
1.0525
1.35431
1.65677
1.95976
2.26277
2.56444
2.86167
3.14752
3.40712
3.61087
3.71538
3.77847
0.152072
0.456311
0.760827
1.06579
1.37136
1.67762
1.98459
2.29208
2.59955
2.90565
3.20757
3.50001
3.77495
4.02787
4.28079
0.153924
0.461861
0.770065
1.07871
1.38798
1.69805
2.00912
2.3215
2.63567
2.95259
3.27431
3.60521
3.95445
4.34051
4.80713
0.155719
0.467243
0.779026
1.09125
1.4041
1.71784
2.03283
2.34975
2.66994
2.99625
3.33475
3.69785
4.1085
4.59738
5.14018
0.157461
0.472464
0.787715
1.10339
1.41967
1.73684
2.05529
2.3758
2.70002
3.03152
3.37821
3.75761
4.20835
4.81699
5.79542
0.159152
0.477533
0.796144
1.11514
1.4347
1.75501
2.07638
2.39936
2.72513
3.05631
3.39906
3.76801
4.19866
4.78
5.75029
0.160796
0.482459
0.804336
1.12656
1.44925
1.77251
2.09643
2.42107
2.74654
3.07314
3.40183
3.73576
4.08442
4.47311
4.93647
0.162396
0.487257
0.81232
1.1377
1.46347
1.78964
2.11605
2.44227
2.76724
3.08858
3.40108
3.69345
3.94249
4.11454
4.28716
0.163955
0.491934
0.820116
1.14861
1.47747
1.80666
2.13588
2.46442
2.79052
3.11022
3.41443
3.6814
3.8541
3.75574
2.69862
0.165471
0.496488
0.827728
1.15931
1.49132
1.82372
2.15627
2.48833
2.81831
3.14269
3.45373
3.73502
3.954
4.06291
4.12414
0.16694
0.500907
0.835132
1.16977
1.50495
1.84074
2.17709
2.51376
2.85007
3.18447
3.5138
3.8321
4.13043
4.40336
4.67355
0.168354
0.505165
0.842281
1.1799
1.51822
1.85743
2.19776
2.53952
2.8832
3.22984
3.58161
3.94324
4.32462
4.74587
5.25507
0.169704
0.509231
0.849113
1.18959
1.53092
1.87343
2.21753
2.56401
2.91436
3.2717
3.64266
4.04081
4.49125
5.02747
5.6224
0.170979
0.51307
0.855562
1.19873
1.54288
1.88837
2.23574
2.5859
2.94072
3.30417
3.68494
4.10225
4.59843
5.26848
6.34527
0.172167
0.516648
0.861573
1.20724
1.55396
1.90209
2.25207
2.60464
2.96118
3.32468
3.70195
4.10908
4.58498
5.22724
6.297
0.173258
0.519937
0.867101
1.21506
1.56413
1.91458
2.26669
2.62069
2.97686
3.33569
3.69834
4.06834
4.45612
4.88931
5.40568
0.174243
0.522907
0.872104
1.22217
1.57339
1.92601
2.28006
2.6353
2.99078
3.3441
3.68974
4.01544
4.29582
4.49379
4.69367
0.175109
0.525527
0.876536
1.22851
1.58176
1.93649
2.29269
2.64982
3.00625
3.35791
3.69509
3.99421
4.19283
4.0971
2.95227
0.175843
0.527754
0.880332
1.234
1.58914
1.94603
2.30475
2.66489
3.02509
3.38183
3.72699
4.04294
4.2943
4.42913
4.51629
0.176427
0.529535
0.883401
1.23852
1.59537
1.95438
2.31588
2.68
3.0464
3.41384
3.77928
4.13669
4.4768
4.79442
5.11547
0.176841
0.530808
0.885629
1.24188
1.60015
1.96106
2.32528
2.6936
3.06706
3.44729
3.83724
4.24263
4.67502
5.15749
5.74444
0.177064
0.531506
0.886894
1.24388
1.60316
1.96552
2.33191
2.70369
3.08307
3.47406
3.88454
4.32998
4.83857
5.44818
6.13312
0.177075
0.531564
0.887078
1.24433
1.60409
1.96723
2.33487
2.70859
3.09108
3.48735
3.90765
4.37364
4.93208
5.68672
6.88942
0.176855
0.530926
0.886084
1.24308
1.60272
1.9659
2.33367
2.70748
3.08957
3.48402
3.89913
4.35327
4.88946
5.61428
6.81372
0.176391
0.529549
0.883841
1.24004
1.59896
1.96143
2.32834
2.70068
3.07955
3.46641
3.86361
4.27608
4.71594
5.21243
5.79862
0.175671
0.5274
0.8803
1.23516
1.59278
1.95393
2.31932
2.6894
3.06403
3.44167
3.8176
4.18003
4.50318
4.74845
5.00582
0.174686
0.524456
0.875425
1.2284
1.58419
1.94355
2.3071
2.67503
3.04648
3.41818
3.78105
4.11142
4.34458
4.27622
3.10586
0.17343
0.520695
0.869183
1.21973
1.57317
1.93033
2.29191
2.65826
3.02881
3.40088
3.76716
4.11048
4.3954
4.56942
4.70692
0.171897
0.516099
0.861539
1.20908
1.55961
1.9141
2.27348
2.63864
3.01012
3.38764
3.76928
4.15027
4.52331
4.88812
5.287
0.170085
0.51066
0.852465
1.19638
1.54336
1.89451
2.25111
2.6147
2.98727
3.37159
3.77193
4.19572
4.65704
5.1833
5.83327
0.167997
0.504379
0.841952
1.18158
1.52427
1.8712
2.22393
2.58457
2.95633
3.34447
3.75834
4.21524
4.74575
5.3927
6.14799
0.165642
0.497287
0.830033
1.1647
1.50226
1.84393
2.19132
2.54679
2.91406
3.29951
3.71496
4.18375
4.7537
5.52702
6.74138
0.163043
0.489441
0.816801
1.14585
1.47745
1.81272
2.15315
2.50087
2.85922
3.23375
3.63463
4.08215
4.62049
5.3552
6.57327
0.160231
0.480941
0.802419
1.12525
1.45014
1.77798
2.10995
2.44763
2.79319
3.14974
3.52197
3.91763
4.35099
4.84783
5.41273
0.15725
0.471919
0.787117
1.10325
1.42082
1.74043
2.06285
2.38896
2.71956
3.05489
3.39312
3.72704
4.03746
4.29334
4.57871
0.154154
0.462543
0.771185
1.08029
1.39011
1.70097
2.01324
2.32721
2.6427
2.95805
3.26735
3.5529
3.76184
3.71847
2.71873
0.151006
0.453001
0.754954
1.05685
1.35871
1.66057
1.96249
2.26444
2.56597
2.86545
3.15812
3.43208
3.66149
3.80783
3.94052
0.147872
0.4435
0.738778
1.03347
1.32734
1.62017
1.91178
2.202
2.4907
2.7776
3.06192
3.34232
3.61886
3.90677
4.28944
0.144822
0.434252
0.723027
1.01068
1.29673
1.58067
1.86206
2.14066
2.41673
2.69155
2.96851
3.25534
3.56839
3.93997
4.42368
0.141925
0.425468
0.708068
0.989036
1.26761
1.54296
1.81431
2.08112
2.34366
2.60403
2.86829
3.15024
3.47732
3.8954
4.45008
0.139245
0.417348
0.694258
0.969074
1.24075
1.50808
1.76975
2.02459
2.27212
2.51384
2.75582
3.01387
3.32312
3.75604
4.45462
0.136836
0.410065
0.681916
0.951313
1.21694
1.47715
1.72997
1.97317
2.20465
2.42348
2.63225
2.84202
3.08307
3.43228
4.11219
0.134736
0.403744
0.671292
0.936188
1.1969
1.45138
1.69691
1.92991
2.14598
2.34014
2.50804
2.64853
2.76797
2.87895
2.93422
0.132962
0.398443
0.662519
0.923986
1.18121
1.43185
1.67255
1.89844
2.10254
2.27506
2.40289
2.46974
2.45876
2.36439
2.26795
0.131498
0.394124
0.655565
0.914743
1.17009
1.41924
1.65851
1.88213
2.08104
2.24104
2.34012
2.34509
2.20748
1.85133
1.08267
0.13029
0.390633
0.650189
0.908166
1.1633
1.41351
1.65534
1.88298
2.08657
2.24934
2.34274
2.31952
2.108
1.62479
0.867318
0.129248
0.38769
0.645914
0.903569
1.15993
1.41361
1.66204
1.90053
2.12048
2.30585
2.42638
2.4248
2.19722
1.58877
0.571532
0.128243
0.3849
0.642038
0.899873
1.15843
1.41736
1.67565
1.93098
2.17841
2.4074
2.59486
2.6871
2.55097
1.83664
-0.395892
0.127121
0.381777
0.637679
0.895679
1.15666
1.42156
1.69133
1.96694
2.24916
2.53785
2.82953
3.10803
3.30625
3.13881
1.32371
0.125712
0.377789
0.631862
0.88941
1.15218
1.42236
1.70295
1.99833
2.31544
2.66627
3.07346
3.5848
4.31537
5.58493
8.40886
8.24302
5.27372
3.98656
3.2707
2.78382
2.40427
2.08205
1.79366
1.52676
1.27426
1.03173
0.796208
0.565554
0.338113
0.112506
0.68803
2.67893
2.91351
2.75784
2.51541
2.25752
2.00139
1.75078
1.50592
1.26611
1.03048
0.798172
0.568376
0.340334
0.113331
-1.1277
1.30389
2.11144
2.30524
2.25776
2.10957
1.91693
1.70394
1.48157
1.25506
1.02693
0.798395
0.56998
0.341835
0.113917
-0.031897
1.05667
1.73555
2.0202
2.07008
1.99253
1.84664
1.66364
1.46013
1.24514
1.02366
0.798539
0.571398
0.34318
0.114444
0.263673
1.09396
1.63343
1.89825
1.97093
1.92298
1.80215
1.63759
1.44668
1.23973
1.02293
0.80009
0.573568
0.344887
0.115079
0.623076
1.33322
1.72207
1.90981
1.95559
1.90408
1.78803
1.62987
1.44439
1.24116
1.02641
0.804204
0.577243
0.34738
0.115957
1.62892
1.79564
1.95039
2.02003
2.00786
1.93003
1.80318
1.64115
1.45443
1.25062
1.03509
0.811631
0.58294
0.35096
0.117178
2.22183
2.26644
2.23787
2.18714
2.10578
1.99004
1.84279
1.6696
1.47637
1.26823
1.04928
0.82271
0.59093
0.355799
0.118799
3.3101
2.78813
2.54081
2.37561
2.22762
2.07198
1.90043
1.712
1.5087
1.29336
1.06879
0.837422
0.601259
0.361941
0.120839
3.66092
3.11917
2.78678
2.55221
2.35483
2.16501
1.96981
1.76476
1.54941
1.32494
1.09305
0.855483
0.613792
0.369331
0.123283
3.77527
3.30489
2.9649
2.70307
2.47685
2.26181
2.04605
1.82472
1.5965
1.36169
1.12128
0.876429
0.628263
0.377833
0.126088
3.8109
3.40015
3.08881
2.82929
2.59116
2.35913
2.1262
1.8895
1.64819
1.40238
1.15264
0.899696
0.644324
0.387257
0.129195
3.77589
3.42647
3.17679
2.94074
2.70128
2.45711
2.20901
1.95754
1.70304
1.44583
1.18624
0.924679
0.661578
0.397382
0.132533
3.50236
3.3836
3.25537
3.05467
2.81473
2.55785
2.29418
2.02771
1.75984
1.49097
1.22125
0.950756
0.679611
0.407972
0.136025
2.45024
3.34741
3.38432
3.19596
2.94
2.66335
2.38134
2.09891
1.81736
1.53675
1.25683
0.977315