/*--------------------------------*- C++ -*----------------------------------*\
| =========                 |                                                 |
| \\      /  F ield         | OpenFOAM: The Open Source CFD Toolbox           |
|  \\    /   O peration     | Version:  5.x                                   |
|   \\  /    A nd           | Web:      www.OpenFOAM.org                      |
|    \\/     M anipulation  |                                                 |
\*---------------------------------------------------------------------------*/
FoamFile
{
    version     2.0;
    format      ascii;
    class       volScalarField;
    location    "4.7";
    object      T;
}
// * * * * * * * * * * * * * * * * * * * * * * * * * * * * * * * * * * * * * //

dimensions      [0 0 0 1 0 0 0];

internalField   nonuniform List<scalar> 
6300
(
322.743
322.228
321.714
321.2
320.687
320.175
319.664
319.153
318.645
318.138
317.632
317.129
316.627
316.128
315.631
322.743
322.228
321.714
321.2
320.686
320.174
319.662
319.152
318.643
318.136
317.63
317.127
316.625
316.126
315.629
322.742
322.227
321.713
321.198
320.685
320.172
319.66
319.149
318.64
318.132
317.626
317.123
316.621
316.121
315.624
322.742
322.227
321.711
321.196
320.682
320.169
319.656
319.145
318.635
318.127
317.621
317.116
316.614
316.114
315.617
322.742
322.225
321.709
321.194
320.679
320.164
319.651
319.139
318.629
318.12
317.613
317.108
316.605
316.105
315.607
322.741
322.224
321.707
321.19
320.674
320.159
319.645
319.132
318.62
318.111
317.603
317.097
316.593
316.093
315.594
322.741
322.222
321.704
321.187
320.669
320.153
319.638
319.123
318.61
318.099
317.59
317.084
316.579
316.078
315.579
322.74
322.221
321.701
321.182
320.664
320.146
319.629
319.113
318.599
318.086
317.576
317.068
316.563
316.06
315.562
322.739
322.218
321.698
321.177
320.657
320.138
319.619
319.102
318.585
318.071
317.559
317.049
316.543
316.04
315.541
322.739
322.216
321.694
321.172
320.65
320.129
319.608
319.089
318.57
318.053
317.539
317.027
316.519
316.015
315.516
322.738
322.214
321.69
321.166
320.642
320.119
319.596
319.074
318.553
318.034
317.516
317.001
316.491
315.985
315.487
322.737
322.211
321.686
321.16
320.634
320.109
319.584
319.059
318.535
318.012
317.49
316.972
316.457
315.949
315.45
322.736
322.209
321.681
321.154
320.626
320.098
319.571
319.043
318.515
317.988
317.462
316.938
316.417
315.904
315.403
322.735
322.206
321.677
321.148
320.618
320.088
319.558
319.027
318.496
317.964
317.432
316.9
316.37
315.845
315.337
322.735
322.204
321.673
321.142
320.61
320.078
319.545
319.011
318.476
317.94
317.401
316.861
316.317
315.771
315.235
315.178
314.767
314.359
313.952
313.547
313.144
312.744
312.345
311.949
311.556
311.166
310.778
310.394
310.013
309.635
309.261
308.891
308.525
308.162
307.804
307.449
307.099
306.752
306.409
306.07
305.735
305.403
305.075
304.75
304.428
304.109
303.794
303.481
303.171
302.864
302.559
302.257
301.957
301.66
301.365
301.072
300.782
300.494
300.208
299.925
299.643
299.364
299.088
298.813
298.541
298.27
298.002
297.736
297.471
297.209
296.948
296.688
296.431
296.174
295.918
295.664
295.41
295.158
294.906
294.654
294.404
294.153
293.903
293.653
293.403
293.153
292.903
292.652
292.401
292.15
291.898
291.645
291.392
291.138
290.882
290.626
290.368
290.109
289.848
289.587
289.323
289.058
288.791
288.522
288.252
315.175
314.765
314.356
313.949
313.544
313.141
312.74
312.342
311.945
311.552
311.161
310.773
310.389
310.008
309.63
309.256
308.886
308.519
308.157
307.798
307.444
307.093
306.746
306.404
306.065
305.729
305.398
305.07
304.745
304.423
304.105
303.79
303.477
303.167
302.86
302.555
302.253
301.954
301.656
301.361
301.069
300.778
300.49
300.205
299.921
299.64
299.361
299.084
298.81
298.537
298.267
297.999
297.733
297.469
297.206
296.946
296.686
296.428
296.172
295.917
295.662
295.409
295.157
294.905
294.654
294.403
294.153
293.903
293.653
293.403
293.153
292.903
292.653
292.402
292.151
291.899
291.646
291.393
291.139
290.884
290.627
290.37
290.111
289.851
289.589
289.325
289.06
288.793
288.525
288.254
315.17
314.76
314.351
313.943
313.538
313.135
312.734
312.334
311.938
311.544
311.152
310.764
310.379
309.997
309.619
309.245
308.874
308.508
308.145
307.786
307.432
307.081
306.735
306.392
306.054
305.719
305.388
305.06
304.735
304.414
304.096
303.781
303.469
303.159
302.852
302.548
302.246
301.946
301.649
301.354
301.062
300.772
300.484
300.198
299.914
299.633
299.354
299.077
298.803
298.531
298.261
297.993
297.727
297.463
297.201
296.941
296.682
296.424
296.168
295.913
295.659
295.406
295.154
294.903
294.652
294.402
294.152
293.902
293.652
293.403
293.153
292.903
292.653
292.403
292.152
291.901
291.649
291.396
291.142
290.887
290.631
290.373
290.115
289.855
289.593
289.33
289.065
288.798
288.53
288.259
315.163
314.752
314.342
313.935
313.529
313.125
312.723
312.324
311.926
311.531
311.139
310.75
310.364
309.982
309.603
309.228
308.857
308.49
308.127
307.769
307.414
307.064
306.718
306.375
306.037
305.703
305.372
305.045
304.721
304.4
304.083
303.768
303.456
303.147
302.841
302.537
302.235
301.936
301.639
301.344
301.051
300.761
300.473
300.187
299.904
299.623
299.344
299.067
298.793
298.521
298.251
297.984
297.719
297.455
297.193
296.934
296.675
296.418
296.163
295.908
295.655
295.402
295.151
294.9
294.649
294.399
294.15
293.901
293.652
293.403
293.153
292.904
292.655
292.405
292.154
291.903
291.652
291.399
291.146
290.891
290.636
290.379
290.121
289.861
289.6
289.337
289.072
288.806
288.537
288.267
315.153
314.741
314.332
313.924
313.518
313.113
312.71
312.31
311.911
311.515
311.121
310.731
310.344
309.961
309.581
309.206
308.834
308.467
308.104
307.745
307.39
307.04
306.694
306.353
306.015
305.681
305.351
305.025
304.702
304.382
304.065
303.751
303.44
303.132
302.825
302.522
302.22
301.921
301.625
301.33
301.038
300.747
300.459
300.174
299.89
299.609
299.33
299.054
298.78
298.508
298.239
297.972
297.707
297.444
297.183
296.924
296.666
296.41
296.155
295.902
295.649
295.397
295.146
294.896
294.646
294.397
294.148
293.899
293.651
293.402
293.154
292.905
292.656
292.407
292.157
291.907
291.656
291.404
291.151
290.898
290.643
290.386
290.129
289.869
289.609
289.346
289.082
288.816
288.548
288.277
315.14
314.729
314.319
313.91
313.504
313.098
312.694
312.292
311.892
311.494
311.099
310.707
310.319
309.934
309.554
309.177
308.805
308.437
308.074
307.715
307.36
307.01
306.665
306.324
305.987
305.654
305.325
305
304.678
304.359
304.043
303.73
303.42
303.112
302.806
302.503
302.202
301.904
301.607
301.313
301.021
300.73
300.442
300.157
299.873
299.592
299.313
299.036
298.763
298.491
298.223
297.956
297.692
297.43
297.17
296.912
296.655
296.4
296.146
295.893
295.642
295.391
295.14
294.891
294.642
294.393
294.145
293.897
293.65
293.402
293.154
292.906
292.658
292.41
292.161
291.912
291.661
291.41
291.158
290.905
290.651
290.396
290.139
289.88
289.62
289.358
289.094
288.829
288.561
288.291
315.125
314.713
314.303
313.895
313.487
313.081
312.676
312.272
311.869
311.47
311.072
310.678
310.288
309.902
309.52
309.143
308.77
308.401
308.037
307.678
307.324
306.974
306.629
306.289
305.953
305.622
305.294
304.97
304.649
304.331
304.017
303.705
303.396
303.089
302.784
302.481
302.181
301.883
301.586
301.292
301
300.71
300.422
300.136
299.852
299.571
299.292
299.015
298.742
298.471
298.203
297.937
297.674
297.413
297.154
296.897
296.642
296.388
296.135
295.883
295.633
295.383
295.133
294.885
294.637
294.389
294.142
293.895
293.648
293.402
293.155
292.908
292.661
292.413
292.165
291.917
291.668
291.418
291.167
290.915
290.661
290.407
290.151
289.893
289.634
289.373
289.11
288.844
288.577
288.307
315.107
314.696
314.286
313.877
313.469
313.062
312.655
312.249
311.844
311.441
311.041
310.644
310.251
309.863
309.48
309.101
308.727
308.358
307.994
307.634
307.28
306.931
306.587
306.248
305.913
305.583
305.257
304.934
304.615
304.299
303.987
303.676
303.368
303.062
302.758
302.456
302.156
301.858
301.562
301.269
300.977
300.687
300.398
300.112
299.828
299.546
299.266
298.99
298.716
298.446
298.179
297.915
297.653
297.393
297.136
296.88
296.626
296.374
296.122
295.872
295.623
295.374
295.125
294.878
294.631
294.384
294.138
293.892
293.647
293.401
293.156
292.91
292.663
292.417
292.17
291.923
291.675
291.427
291.177
290.926
290.673
290.42
290.165
289.908
289.65
289.39
289.128
288.864
288.597
288.327
315.087
314.676
314.267
313.859
313.451
313.042
312.633
312.224
311.815
311.408
311.004
310.603
310.208
309.818
309.433
309.053
308.678
308.308
307.943
307.583
307.228
306.88
306.537
306.2
305.867
305.539
305.215
304.894
304.577
304.263
303.952
303.644
303.338
303.033
302.73
302.428
302.128
301.831
301.535
301.242
300.951
300.661
300.372
300.085
299.8
299.517
299.237
298.96
298.687
298.417
298.151
297.888
297.628
297.37
297.114
296.86
296.608
296.358
296.108
295.86
295.612
295.364
295.116
294.87
294.624
294.378
294.134
293.89
293.645
293.401
293.156
292.911
292.666
292.421
292.176
291.93
291.684
291.437
291.189
290.939
290.687
290.435
290.181
289.926
289.669
289.41
289.15
288.886
288.62
288.351
315.063
314.654
314.247
313.84
313.433
313.023
312.612
312.198
311.784
311.371
310.961
310.556
310.157
309.765
309.379
308.998
308.622
308.251
307.884
307.523
307.168
306.821
306.479
306.144
305.814
305.489
305.167
304.848
304.534
304.223
303.915
303.609
303.305
303.001
302.699
302.397
302.098
301.8
301.505
301.213
300.922
300.633
300.344
300.055
299.768
299.484
299.202
298.925
298.652
298.383
298.119
297.858
297.599
297.343
297.089
296.838
296.588
296.34
296.093
295.846
295.6
295.353
295.106
294.86
294.615
294.372
294.129
293.887
293.644
293.401
293.158
292.913
292.669
292.425
292.182
291.938
291.694
291.449
291.202
290.953
290.703
290.451
290.198
289.945
289.69
289.434
289.175
288.913
288.648
288.379
315.036
314.63
314.226
313.823
313.417
313.008
312.593
312.173
311.751
311.329
310.911
310.5
310.097
309.703
309.317
308.937
308.56
308.187
307.817
307.454
307.099
306.752
306.413
306.082
305.756
305.433
305.114
304.797
304.485
304.177
303.873
303.571
303.27
302.968
302.666
302.364
302.063
301.765
301.471
301.181
300.892
300.603
300.314
300.024
299.734
299.446
299.162
298.883
298.61
298.343
298.081
297.823
297.568
297.314
297.062
296.812
296.565
296.321
296.077
295.833
295.588
295.342
295.095
294.849
294.605
294.363
294.123
293.884
293.644
293.402
293.159
292.916
292.672
292.429
292.187
291.947
291.706
291.464
291.219
290.971
290.721
290.469
290.217
289.966
289.714
289.461
289.205
288.945
288.681
288.413
315.003
314.602
314.204
313.808
313.408
312.999
312.58
312.152
311.717
311.281
310.851
310.431
310.024
309.63
309.247
308.869
308.492
308.116
307.742
307.374
307.016
306.67
306.336
306.011
305.692
305.373
305.056
304.74
304.43
304.126
303.829
303.533
303.236
302.936
302.633
302.328
302.024
301.725
301.433
301.146
300.861
300.575
300.285
299.992
299.697
299.402
299.113
298.831
298.559
298.295
298.039
297.786
297.533
297.281
297.03
296.782
296.539
296.3
296.061
295.821
295.578
295.332
295.084
294.836
294.592
294.352
294.116
293.882
293.645
293.406
293.162
292.918
292.672
292.43
292.191
291.956
291.72
291.482
291.239
290.991
290.74
290.487
290.236
289.987
289.74
289.492
289.24
288.983
288.721
288.453
314.961
314.57
314.18
313.799
313.412
313.005
312.582
312.138
311.686
311.224
310.777
310.342
309.932
309.54
309.168
308.801
308.424
308.043
307.656
307.281
306.917
306.573
306.244
305.932
305.626
305.312
304.995
304.675
304.366
304.066
303.78
303.497
303.206
302.908
302.601
302.291
301.978
301.677
301.385
301.108
300.834
300.551
300.261
299.961
299.658
299.351
299.054
298.767
298.496
298.236
297.99
297.747
297.499
297.247
296.993
296.746
296.506
296.277
296.049
295.813
295.573
295.323
295.071
294.817
294.571
294.334
294.107
293.882
293.651
293.414
293.168
292.92
292.669
292.426
292.19
291.964
291.739
291.506
291.266
291.016
290.762
290.503
290.251
290.004
289.767
289.53
289.283
289.03
288.767
288.502
314.904
314.535
314.144
313.798
313.445
313.033
312.614
312.138
311.668
311.148
310.684
310.219
309.815
309.42
309.082
308.747
308.362
307.978
307.553
307.171
306.788
306.454
306.127
305.847
305.57
305.253
304.94
304.595
304.288
303.986
303.728
303.474
303.184
302.895
302.572
302.257
301.915
301.613
301.317
301.065
300.818
300.536
300.253
299.936
299.625
299.285
298.981
298.679
298.415
298.158
297.937
297.718
297.467
297.218
296.944
296.7
296.458
296.251
296.047
295.813
295.58
295.318
295.063
294.785
294.54
294.3
294.095
293.893
293.664
293.434
293.177
292.926
292.654
292.412
292.175
291.971
291.77
291.539
291.308
291.047
290.791
290.509
290.258
290.009
289.794
289.58
289.335
289.09
288.817
288.562
314.81
314.533
314.042
313.805
313.565
313.07
312.73
312.127
311.721
310.991
310.591
310.009
309.684
309.219
308.992
308.765
308.298
307.974
307.386
307.061
306.589
306.323
305.943
305.757
305.571
305.191
304.929
304.459
304.203
303.843
303.669
303.501
303.162
302.932
302.53
302.264
301.793
301.54
301.186
301.017
300.852
300.521
300.295
299.9
299.635
299.165
298.907
298.535
298.326
298.027
297.881
297.734
297.433
297.225
296.852
296.649
296.361
296.222
296.087
295.813
295.627
295.302
295.086
294.706
294.502
294.215
294.078
293.944
293.676
293.494
293.176
292.965
292.593
292.392
292.11
291.974
291.841
291.575
291.392
291.071
290.855
290.471
290.261
289.964
289.82
289.677
289.387
289.189
288.84
288.645
287.952
287.623
287.292
286.958
286.621
286.283
285.943
285.601
285.257
284.912
284.566
284.219
283.871
283.523
283.174
287.955
287.626
287.294
286.96
286.624
286.285
285.945
285.602
285.258
284.913
284.567
284.22
283.872
283.523
283.174
287.96
287.631
287.299
286.964
286.628
286.289
285.948
285.605
285.261
284.916
284.569
284.221
283.873
283.524
283.175
287.968
287.638
287.306
286.971
286.634
286.295
285.953
285.61
285.265
284.919
284.572
284.223
283.874
283.525
283.175
287.978
287.648
287.316
286.98
286.642
286.302
285.96
285.616
285.27
284.923
284.575
284.226
283.876
283.526
283.175
287.991
287.661
287.328
286.992
286.653
286.312
285.969
285.624
285.277
284.929
284.58
284.23
283.879
283.527
283.176
288.007
287.677
287.343
287.006
286.666
286.324
285.98
285.633
285.285
284.936
284.585
284.234
283.882
283.529
283.176
288.027
287.696
287.361
287.023
286.682
286.338
285.992
285.644
285.294
284.944
284.592
284.239
283.885
283.531
283.177
288.051
287.719
287.383
287.043
286.7
286.354
286.006
285.656
285.305
284.952
284.599
284.244
283.889
283.534
283.178
288.079
287.746
287.408
287.066
286.721
286.373
286.023
285.67
285.317
284.962
284.607
284.25
283.893
283.536
283.179
288.112
287.778
287.438
287.093
286.745
286.394
286.04
285.686
285.33
284.973
284.615
284.257
283.898
283.539
283.18
288.153
287.816
287.472
287.123
286.771
286.416
286.06
285.702
285.344
284.984
284.624
284.264
283.903
283.542
283.181
288.201
287.861
287.511
287.157
286.8
286.441
286.081
285.72
285.358
284.996
284.634
284.271
283.908
283.545
283.182
288.263
287.914
287.555
287.193
286.83
286.466
286.102
285.738
285.374
285.009
284.644
284.279
283.914
283.548
283.183
288.348
287.977
287.603
287.231
286.86
286.492
286.124
285.756
285.389
285.022
284.654
284.287
283.919
283.552
283.184
322.734
322.202
321.669
321.137
320.603
320.069
319.534
318.998
318.46
317.919
317.376
316.827
316.27
315.695
315.075
322.733
322.2
321.666
321.132
320.598
320.062
319.525
318.987
318.446
317.903
317.356
316.802
316.239
315.658
315.038
322.733
322.198
321.664
321.128
320.592
320.056
319.517
318.977
318.435
317.889
317.34
316.785
316.221
315.647
315.063
322.732
322.197
321.661
321.125
320.588
320.05
319.511
318.969
318.425
317.879
317.328
316.773
316.211
315.642
315.069
322.732
322.196
321.659
321.122
320.585
320.046
319.505
318.963
318.418
317.871
317.32
316.765
316.205
315.641
315.076
322.732
322.195
321.658
321.12
320.582
320.042
319.501
318.958
318.413
317.865
317.314
316.76
316.202
315.641
315.079
322.731
322.194
321.657
321.119
320.58
320.039
319.498
318.955
318.409
317.862
317.311
316.758
316.201
315.642
315.08
322.731
322.194
321.656
321.118
320.578
320.038
319.496
318.953
318.408
317.86
317.31
316.757
316.202
315.644
315.084
322.731
322.194
321.656
321.117
320.578
320.037
319.496
318.952
318.407
317.86
317.311
316.759
316.205
315.648
315.087
322.731
322.194
321.656
321.117
320.578
320.038
319.496
318.953
318.408
317.862
317.313
316.762
316.209
315.654
315.097
322.731
322.194
321.656
321.118
320.579
320.039
319.498
318.955
318.411
317.865
317.317
316.767
316.215
315.661
315.104
322.731
322.194
321.657
321.119
320.58
320.041
319.5
318.958
318.414
317.869
317.322
316.773
316.223
315.67
315.117
322.732
322.195
321.658
321.121
320.582
320.043
319.503
318.962
318.419
317.875
317.329
316.781
316.231
315.68
315.126
322.732
322.196
321.659
321.123
320.585
320.047
319.507
318.967
318.425
317.882
317.336
316.79
316.241
315.691
315.141
322.732
322.197
321.661
321.125
320.588
320.051
319.512
318.973
318.432
317.889
317.345
316.8
316.252
315.702
315.149
322.733
322.198
321.663
321.128
320.592
320.056
319.518
318.979
318.44
317.898
317.356
316.811
316.264
315.714
315.159
322.733
322.2
321.666
321.131
320.597
320.061
319.525
318.987
318.448
317.908
317.367
316.824
316.279
315.731
315.181
322.734
322.201
321.668
321.135
320.601
320.067
319.532
318.995
318.458
317.92
317.38
316.838
316.295
315.749
315.198
322.734
322.203
321.671
321.139
320.607
320.074
319.54
319.005
318.469
317.932
317.393
316.853
316.312
315.771
315.231
322.735
322.205
321.674
321.144
320.612
320.081
319.548
319.015
318.48
317.944
317.408
316.87
316.331
315.791
315.249
322.736
322.207
321.678
321.148
320.619
320.088
319.557
319.025
318.492
317.958
317.423
316.887
316.349
315.812
315.278
322.736
322.209
321.681
321.154
320.625
320.096
319.567
319.036
318.505
317.973
317.439
316.904
316.368
315.83
315.292
322.737
322.211
321.685
321.159
320.632
320.105
319.577
319.048
318.519
317.988
317.456
316.923
316.388
315.85
315.306
322.738
322.214
321.689
321.165
320.64
320.114
319.588
319.061
318.533
318.004
317.474
316.943
316.409
315.874
315.337
322.739
322.216
321.694
321.171
320.647
320.123
319.599
319.074
318.548
318.021
317.493
316.964
316.432
315.898
315.358
322.74
322.219
321.698
321.177
320.655
320.133
319.611
319.087
318.564
318.039
317.513
316.986
316.457
315.927
315.397
322.741
322.222
321.703
321.183
320.664
320.143
319.623
319.102
318.58
318.057
317.534
317.009
316.484
315.956
315.424
322.742
322.224
321.707
321.19
320.672
320.154
319.635
319.116
318.596
318.076
317.555
317.033
316.511
315.989
315.473
322.742
322.227
321.712
321.197
320.681
320.165
319.648
319.131
318.614
318.095
317.577
317.057
316.538
316.019
315.5
322.743
322.23
321.717
321.204
320.69
320.176
319.662
319.147
318.631
318.115
317.599
317.081
316.564
316.048
315.539
322.745
322.234
321.722
321.211
320.7
320.188
319.675
319.163
318.649
318.135
317.621
317.106
316.59
316.074
315.557
322.746
322.237
321.728
321.219
320.709
320.199
319.689
319.179
318.668
318.156
317.644
317.13
316.616
316.099
315.575
322.747
322.24
321.733
321.226
320.719
320.212
319.704
319.195
318.686
318.177
317.667
317.156
316.643
316.129
315.614
322.748
322.243
321.739
321.234
320.729
320.224
319.718
319.212
318.706
318.199
317.691
317.182
316.672
316.159
315.64
322.749
322.247
321.744
321.242
320.739
320.236
319.733
319.229
318.725
318.221
317.715
317.209
316.702
316.194
315.687
322.75
322.25
321.75
321.25
320.75
320.249
319.748
319.247
318.745
318.243
317.741
317.237
316.734
316.229
315.718
322.751
322.254
321.756
321.258
320.76
320.262
319.764
319.265
318.766
318.266
317.766
317.266
316.766
316.267
315.775
322.752
322.257
321.762
321.267
320.771
320.275
319.779
319.283
318.786
318.289
317.792
317.294
316.797
316.301
315.805
322.754
322.261
321.768
321.275
320.782
320.289
319.795
319.301
318.807
318.312
317.817
317.322
316.828
316.335
315.85
322.755
322.265
321.774
321.284
320.793
320.302
319.811
319.32
318.828
318.336
317.843
317.35
316.857
316.364
315.871
322.756
322.268
321.78
321.292
320.804
320.316
319.827
319.338
318.849
318.359
317.869
317.378
316.886
316.392
315.891
322.757
322.272
321.787
321.301
320.816
320.33
319.844
319.357
318.871
318.383
317.896
317.407
316.917
316.426
315.934
322.759
322.276
321.793
321.31
320.827
320.344
319.86
319.377
318.892
318.408
317.923
317.437
316.949
316.459
315.962
322.76
322.28
321.8
321.319
320.839
320.358
319.877
319.396
318.915
318.433
317.95
317.467
316.983
316.498
316.014
322.761
322.284
321.806
321.328
320.851
320.373
319.894
319.416
318.937
318.458
317.978
317.498
317.018
316.536
316.048
322.763
322.288
321.813
321.338
320.862
320.387
319.911
319.436
318.96
318.483
318.006
317.53
317.053
316.578
316.11
322.764
322.292
321.819
321.347
320.874
320.402
319.929
319.456
318.982
318.509
318.035
317.561
317.088
316.616
316.144
322.765
322.296
321.826
321.356
320.887
320.417
319.946
319.476
319.005
318.534
318.063
317.592
317.121
316.653
316.193
322.767
322.3
321.833
321.366
320.899
320.432
319.964
319.496
319.028
318.56
318.092
317.623
317.153
316.684
316.215
322.768
322.304
321.84
321.376
320.911
320.447
319.982
319.517
319.052
318.586
318.12
317.653
317.186
316.716
316.238
322.769
322.308
321.847
321.385
320.924
320.462
320
319.538
319.075
318.613
318.149
317.685
317.219
316.752
316.284
322.771
322.312
321.854
321.395
320.936
320.477
320.018
319.559
319.099
318.639
318.179
317.717
317.254
316.789
316.316
322.772
322.316
321.861
321.405
320.949
320.493
320.037
319.58
319.123
318.666
318.209
317.751
317.291
316.831
316.372
322.774
322.321
321.868
321.415
320.962
320.509
320.055
319.602
319.148
318.694
318.239
317.785
317.329
316.873
316.409
322.775
322.325
321.875
321.425
320.975
320.524
320.074
319.623
319.172
318.721
318.27
317.819
317.368
316.919
316.478
322.776
322.329
321.882
321.435
320.988
320.54
320.093
319.645
319.197
318.749
318.301
317.853
317.406
316.96
316.514
322.778
322.334
321.889
321.445
321.001
320.556
320.112
319.667
319.222
318.777
318.332
317.887
317.442
317
316.568
322.779
322.338
321.897
321.455
321.014
320.572
320.131
319.689
319.247
318.805
318.363
317.92
317.477
317.035
316.592
322.781
322.342
321.904
321.466
321.027
320.589
320.15
319.711
319.272
318.833
318.393
317.953
317.512
317.069
316.617
322.782
322.347
321.911
321.476
321.04
320.605
320.169
319.733
319.297
318.861
318.425
317.987
317.549
317.109
316.668
322.784
322.351
321.919
321.486
321.054
320.621
320.189
319.756
319.323
318.89
318.456
318.022
317.587
317.149
316.702
322.785
322.356
321.926
321.497
321.067
320.638
320.208
319.778
319.349
318.919
318.489
318.058
317.627
317.194
316.764
322.787
322.36
321.934
321.507
321.08
320.654
320.227
319.801
319.374
318.948
318.521
318.094
317.668
317.239
316.804
322.788
322.365
321.941
321.517
321.094
320.67
320.247
319.823
319.4
318.977
318.554
318.131
317.709
317.289
316.878
322.79
322.369
321.948
321.528
321.107
320.687
320.266
319.846
319.426
319.006
318.586
318.167
317.749
317.333
316.918
322.791
322.373
321.956
321.538
321.12
320.703
320.286
319.868
319.451
319.035
318.618
318.202
317.788
317.376
316.975
322.793
322.378
321.963
321.548
321.134
320.719
320.305
319.891
319.477
319.063
318.65
318.237
317.824
317.412
317.001
322.794
322.382
321.97
321.559
321.147
320.735
320.324
319.913
319.502
319.092
318.681
318.271
317.86
317.447
317.027
322.795
322.386
321.977
321.569
321.16
320.751
320.343
319.935
319.527
319.12
318.713
318.305
317.897
317.488
317.08
322.797
322.391
321.985
321.579
321.173
320.767
320.362
319.957
319.552
319.148
318.744
318.34
317.935
317.529
317.115
322.798
322.395
321.992
321.589
321.186
320.783
320.381
319.979
319.577
319.176
318.775
318.375
317.975
317.575
317.177
322.8
322.399
321.999
321.598
321.198
320.798
320.399
320
319.602
319.204
318.807
318.41
318.015
317.619
317.217
322.801
322.403
322.006
321.608
321.211
320.814
320.417
320.021
319.626
319.231
318.837
318.445
318.054
317.667
317.289
322.802
322.407
322.012
321.617
321.223
320.829
320.435
320.042
319.649
319.258
318.867
318.478
318.092
317.708
317.327
322.804
322.411
322.019
321.627
321.235
320.843
320.452
320.062
319.672
319.284
318.896
318.51
318.127
317.748
317.38
322.805
322.415
322.025
321.636
321.247
320.858
320.469
320.082
319.695
319.309
318.924
318.54
318.159
317.78
317.403
322.806
322.419
322.032
321.645
321.258
320.872
320.486
320.101
319.716
319.333
318.951
318.569
318.189
317.81
317.425
322.808
322.423
322.038
321.653
321.269
320.885
320.502
320.119
319.737
319.356
318.976
318.598
318.22
317.843
317.469
322.809
322.426
322.044
321.662
321.28
320.899
320.518
320.137
319.758
319.379
319.002
318.625
318.25
317.875
317.496
322.81
322.43
322.05
321.67
321.291
320.912
320.533
320.155
319.778
319.401
319.026
318.652
318.279
317.909
317.543
322.811
322.433
322.056
321.678
321.301
320.924
320.548
320.172
319.797
319.423
319.049
318.678
318.308
317.94
317.571
322.812
322.437
322.062
321.686
321.312
320.937
320.563
320.189
319.816
319.443
319.072
318.702
318.335
317.971
317.617
322.813
322.44
322.067
321.694
321.322
320.949
320.577
320.205
319.834
319.463
319.093
318.725
318.359
317.997
317.639
322.815
322.444
322.073
321.702
321.331
320.961
320.591
320.221
319.851
319.482
319.114
318.746
318.381
318.019
317.666
322.816
322.447
322.078
321.71
321.341
320.973
320.605
320.237
319.869
319.501
319.133
318.766
318.4
318.036
317.677
322.817
322.45
322.084
321.717
321.351
320.985
320.619
320.252
319.886
319.519
319.153
318.785
318.418
318.05
317.684
322.818
322.453
322.089
321.725
321.361
320.996
320.632
320.268
319.903
319.538
319.172
318.805
318.435
318.063
317.691
322.819
322.457
322.094
321.732
321.37
321.008
320.646
320.284
319.921
319.558
319.193
318.826
318.454
318.077
317.693
322.82
322.46
322.1
321.74
321.38
321.02
320.66
320.3
319.94
319.578
319.216
318.85
318.478
318.094
317.685
322.821
322.463
322.105
321.747
321.39
321.032
320.674
320.317
319.959
319.6
319.24
318.878
318.509
318.129
317.715
288.468
288.039
287.644
287.263
286.887
286.514
286.143
285.773
285.403
285.033
284.664
284.294
283.924
283.555
283.185
288.496
288.071
287.673
287.288
286.909
286.534
286.16
285.788
285.416
285.044
284.672
284.301
283.929
283.558
283.186
288.48
288.084
287.693
287.309
286.929
286.552
286.177
285.802
285.428
285.055
284.681
284.307
283.934
283.56
283.187
288.477
288.093
287.708
287.326
286.947
286.569
286.192
285.816
285.44
285.065
284.69
284.314
283.939
283.563
283.188
288.479
288.101
287.722
287.342
286.963
286.585
286.207
285.83
285.452
285.075
284.698
284.321
283.943
283.566
283.189
288.482
288.111
287.735
287.358
286.98
286.601
286.222
285.843
285.465
285.086
284.707
284.327
283.948
283.569
283.19
288.489
288.123
287.751
287.374
286.996
286.617
286.237
285.857
285.477
285.096
284.715
284.334
283.953
283.572
283.191
288.509
288.141
287.768
287.392
287.013
286.633
286.252
285.871
285.489
285.106
284.724
284.341
283.958
283.575
283.192
288.526
288.161
287.788
287.411
287.031
286.65
286.268
285.885
285.501
285.117
284.733
284.348
283.963
283.578
283.193
288.564
288.187
287.81
287.431
287.05
286.668
286.284
285.899
285.514
285.128
284.742
284.355
283.968
283.581
283.194
288.587
288.213
287.834
287.453
287.07
286.686
286.301
285.914
285.527
285.139
284.751
284.362
283.973
283.584
283.195
288.627
288.242
287.86
287.476
287.092
286.705
286.318
285.93
285.541
285.151
284.76
284.37
283.978
283.587
283.196
288.651
288.27
287.886
287.5
287.114
286.725
286.336
285.946
285.554
285.163
284.77
284.377
283.984
283.59
283.197
288.69
288.299
287.913
287.525
287.137
286.746
286.355
285.962
285.569
285.175
284.78
284.385
283.989
283.594
283.198
288.709
288.326
287.94
287.551
287.161
286.768
286.374
285.98
285.584
285.187
284.79
284.393
283.995
283.597
283.199
288.731
288.355
287.969
287.579
287.186
286.791
286.395
285.997
285.599
285.2
284.801
284.401
284.001
283.601
283.2
288.779
288.391
288.001
287.608
287.212
286.814
286.415
286.016
285.615
285.214
284.812
284.41
284.007
283.604
283.201
288.814
288.429
288.036
287.638
287.239
286.839
286.437
286.035
285.631
285.227
284.823
284.418
284.013
283.608
283.203
288.88
288.474
288.072
287.67
287.268
286.864
286.459
286.054
285.648
285.242
284.835
284.427
284.02
283.612
283.204
288.918
288.515
288.109
287.703
287.297
286.89
286.482
286.074
285.665
285.256
284.846
284.436
284.026
283.616
283.205
288.976
288.558
288.146
287.736
287.326
286.916
286.505
286.094
285.683
285.271
284.858
284.446
284.033
283.62
283.207
289.01
288.596
288.182
287.769
287.355
286.942
286.529
286.115
285.7
285.285
284.87
284.455
284.039
283.624
283.208
289.06
288.635
288.217
287.801
287.385
286.969
286.552
286.135
285.718
285.3
284.883
284.464
284.046
283.628
283.209
289.084
288.668
288.251
287.833
287.415
286.996
286.576
286.156
285.736
285.316
284.895
284.474
284.053
283.632
283.211
289.109
288.703
288.286
287.866
287.445
287.023
286.6
286.178
285.755
285.331
284.908
284.484
284.06
283.636
283.212
289.164
288.744
288.323
287.9
287.476
287.05
286.625
286.199
285.773
285.347
284.92
284.494
284.067
283.64
283.213
289.202
288.786
288.361
287.934
287.507
287.078
286.65
286.221
285.792
285.362
284.933
284.504
284.074
283.644
283.215
289.274
288.834
288.401
287.97
287.538
287.106
286.674
286.242
285.81
285.378
284.946
284.514
284.081
283.649
283.216
289.313
288.878
288.441
288.005
287.569
287.134
286.699
286.264
285.829
285.394
284.959
284.524
284.088
283.653
283.218
289.373
288.922
288.479
288.039
287.6
287.162
286.724
286.286
285.848
285.41
284.972
284.534
284.096
283.657
283.219
289.406
288.961
288.516
288.073
287.631
287.19
286.749
286.308
285.867
285.426
284.985
284.544
284.103
283.662
283.221
289.456
289
288.552
288.106
287.661
287.217
286.773
286.329
285.885
285.442
284.998
284.554
284.11
283.666
283.222
289.479
289.033
288.586
288.139
287.692
287.245
286.798
286.351
285.904
285.458
285.011
284.564
284.117
283.67
283.223
289.504
289.066
288.62
288.171
287.721
287.272
286.822
286.373
285.923
285.473
285.024
284.574
284.124
283.675
283.225
289.555
289.105
288.655
288.204
287.752
287.299
286.847
286.394
285.942
285.489
285.037
284.584
284.132
283.679
283.226
289.59
289.144
288.691
288.237
287.782
287.327
286.871
286.416
285.961
285.505
285.05
284.594
284.139
283.683
283.228
289.656
289.189
288.729
288.27
287.812