/*--------------------------------*- C++ -*----------------------------------*\
| =========                 |                                                 |
| \\      /  F ield         | OpenFOAM: The Open Source CFD Toolbox           |
|  \\    /   O peration     | Version:  5.x                                   |
|   \\  /    A nd           | Web:      www.OpenFOAM.org                      |
|    \\/     M anipulation  |                                                 |
\*---------------------------------------------------------------------------*/
FoamFile
{
    version     2.0;
    format      ascii;
    class       volScalarField;
    location    "3.9";
    object      gradTx;
}
// * * * * * * * * * * * * * * * * * * * * * * * * * * * * * * * * * * * * * //

dimensions      [0 -1 0 1 0 0 0];

internalField   nonuniform List<scalar> 
6300
(
-48.9823
-48.9626
-48.923
-48.8634
-48.7837
-48.6837
-48.5634
-48.423
-48.2627
-48.0834
-47.886
-47.6719
-47.4428
-47.2003
-46.9459
-49.0023
-48.9826
-48.9431
-48.8837
-48.8042
-48.7042
-48.5838
-48.443
-48.282
-48.1016
-47.9029
-47.6872
-47.4564
-47.2124
-46.9571
-49.0422
-49.0227
-48.9835
-48.9245
-48.8452
-48.7455
-48.6249
-48.4834
-48.3211
-48.1386
-47.937
-47.7179
-47.4835
-47.2363
-46.9788
-49.1018
-49.0826
-49.044
-48.9856
-48.9071
-48.8077
-48.6871
-48.5447
-48.3805
-48.1949
-47.9888
-47.7641
-47.5236
-47.2707
-47.0091
-49.1808
-49.1621
-49.1244
-49.0672
-48.9899
-48.8915
-48.7712
-48.6281
-48.4617
-48.2718
-48.0594
-47.8265
-47.5765
-47.3142
-47.0453
-49.2788
-49.2608
-49.2245
-49.1692
-49.094
-48.9975
-48.8784
-48.7352
-48.5665
-48.3715
-48.1508
-47.9061
-47.6418
-47.3646
-47.083
-49.395
-49.378
-49.3438
-49.2914
-49.2195
-49.1264
-49.01
-48.8679
-48.6977
-48.4974
-48.2663
-48.0057
-47.7204
-47.4195
-47.1163
-49.5282
-49.5128
-49.4815
-49.4332
-49.3664
-49.2788
-49.1674
-49.0289
-48.8592
-48.6544
-48.4115
-48.1302
-47.8149
-47.4771
-47.1369
-49.6771
-49.6637
-49.6364
-49.5939
-49.5343
-49.455
-49.3523
-49.2213
-49.056
-48.8496
-48.5954
-48.289
-47.932
-47.5375
-47.1345
-49.8397
-49.8288
-49.8066
-49.7717
-49.7222
-49.655
-49.5657
-49.4482
-49.2942
-49.0929
-48.8318
-48.4985
-48.0868
-47.6066
-47.0977
-50.0132
-50.0055
-49.9897
-49.9645
-49.928
-49.8772
-49.8075
-49.7118
-49.5798
-49.3963
-49.1406
-48.7868
-48.3101
-47.7047
-47.0167
-50.1946
-50.1906
-50.1823
-50.1687
-50.1483
-50.1186
-50.0755
-50.012
-49.917
-49.7722
-49.5476
-49.198
-48.6624
-47.8856
-46.8914
-50.3803
-50.3803
-50.3804
-50.3799
-50.3781
-50.3737
-50.3639
-50.3439
-50.3044
-50.2278
-50.0799
-49.7953
-49.2561
-48.2839
-46.7522
-50.566
-50.5703
-50.5791
-50.5925
-50.6109
-50.6343
-50.6628
-50.6954
-50.729
-50.7549
-50.749
-50.6476
-50.2828
-49.2423
-46.7502
-50.7476
-50.756
-50.7734
-50.8005
-50.8387
-50.8901
-50.9577
-51.046
-51.1616
-51.3138
-51.5138
-51.7633
-51.9858
-51.6525
-47.7781
-46.7034
-46.4748
-46.2383
-45.9929
-45.7372
-45.4695
-45.1879
-44.8906
-44.576
-44.2433
-43.8921
-43.5228
-43.1366
-42.735
-42.3203
-41.8948
-41.4612
-41.0222
-40.5807
-40.1395
-39.7016
-39.2698
-38.8467
-38.4348
-38.0363
-37.6529
-37.2862
-36.937
-36.6059
-36.2933
-35.9988
-35.7218
-35.4617
-35.2171
-34.9869
-34.7698
-34.5643
-34.3691
-34.1828
-34.0043
-33.8324
-33.6659
-33.504
-33.3461
-33.1916
-33.0407
-32.8937
-32.7514
-32.6147
-32.4849
-32.3635
-32.2516
-32.1506
-32.0615
-31.9851
-31.9219
-31.8722
-31.8361
-31.8133
-31.8035
-31.8061
-31.8206
-31.8463
-31.8827
-31.9293
-31.9858
-32.0518
-32.1271
-32.2115
-32.3047
-32.4067
-32.5172
-32.6364
-32.7642
-32.9007
-33.0461
-33.2004
-33.3635
-33.5355
-33.7163
-33.9056
-34.1032
-34.3089
-34.5223
-34.7426
-34.9692
-35.2009
-35.4363
-35.6737
-35.9111
-46.7145
-46.4865
-46.2513
-46.0079
-45.7548
-45.4898
-45.2108
-44.9156
-44.6025
-44.2702
-43.9184
-43.5476
-43.1589
-42.7544
-42.3361
-41.9068
-41.4692
-41.0261
-40.5804
-40.1352
-39.6932
-39.2575
-38.8309
-38.4159
-38.0148
-37.6294
-37.2611
-36.9111
-36.5798
-36.2674
-35.9737
-35.698
-35.4394
-35.1967
-34.9685
-34.7533
-34.5497
-34.3564
-34.1719
-33.9951
-33.8247
-33.6595
-33.4986
-33.3411
-33.1867
-33.0353
-32.8872
-32.7433
-32.6048
-32.4731
-32.3497
-32.2361
-32.1336
-32.0433
-31.966
-31.9024
-31.8527
-31.8168
-31.7946
-31.7855
-31.789
-31.8043
-31.8307
-31.8678
-31.915
-31.9719
-32.0383
-32.1139
-32.1985
-32.2919
-32.394
-32.5045
-32.6236
-32.7513
-32.8877
-33.033
-33.1872
-33.3504
-33.5226
-33.7036
-33.8932
-34.0913
-34.2975
-34.5117
-34.7333
-34.9614
-35.1951
-35.4329
-35.6731
-35.9136
-46.7356
-46.5088
-46.2764
-46.0374
-45.7897
-45.5307
-45.2574
-44.9669
-44.6568
-44.3255
-43.9725
-43.5983
-43.2046
-42.7937
-42.3682
-41.9311
-41.4855
-41.0341
-40.58
-40.1264
-39.6761
-39.2326
-38.7987
-38.3773
-37.9709
-37.5814
-37.2103
-36.8586
-36.5268
-36.2151
-35.923
-35.6499
-35.3946
-35.1557
-34.9315
-34.7203
-34.5207
-34.3312
-34.1503
-33.9769
-33.8096
-33.6471
-33.4883
-33.332
-33.1777
-33.0251
-32.8748
-32.7277
-32.5853
-32.4494
-32.3219
-32.2046
-32.099
-32.0063
-31.9274
-31.8629
-31.8131
-31.7779
-31.7568
-31.7494
-31.7546
-31.7717
-31.7998
-31.8382
-31.8864
-31.9441
-32.0112
-32.0874
-32.1726
-32.2664
-32.3687
-32.4793
-32.5982
-32.7255
-32.8616
-33.0066
-33.1607
-33.3241
-33.4966
-33.678
-33.8682
-34.067
-34.2744
-34.4901
-34.7139
-34.9452
-35.1829
-35.4257
-35.6715
-35.9182
-46.7646
-46.5393
-46.3115
-46.0796
-45.8412
-45.5925
-45.3291
-45.0468
-44.742
-44.4124
-44.0572
-43.6775
-43.2755
-42.8542
-42.4173
-41.9682
-41.5102
-41.0463
-40.5795
-40.1129
-39.6499
-39.194
-38.7488
-38.3176
-37.903
-37.5073
-37.1319
-36.7777
-36.4452
-36.1346
-35.8453
-35.5765
-35.3266
-35.0937
-34.8759
-34.6711
-34.4775
-34.2937
-34.1183
-33.9501
-33.7878
-33.6298
-33.4745
-33.3204
-33.1663
-33.012
-32.8578
-32.7053
-32.5564
-32.4137
-32.2796
-32.1563
-32.0458
-31.9494
-31.868
-31.8023
-31.7525
-31.7184
-31.6995
-31.6949
-31.7032
-31.7233
-31.7539
-31.7943
-31.8439
-31.9028
-31.9708
-32.0479
-32.134
-32.2285
-32.3313
-32.4419
-32.5603
-32.6869
-32.8222
-32.9667
-33.1207
-33.2843
-33.4573
-33.6394
-33.8304
-34.0301
-34.2387
-34.4564
-34.6833
-34.9191
-35.1631
-35.4135
-35.6683
-35.9248
-46.7976
-46.574
-46.3525
-46.1317
-45.9079
-45.6757
-45.4284
-45.1595
-44.8633
-44.5363
-44.1778
-43.7892
-43.3743
-42.9377
-42.4844
-42.0186
-41.5438
-41.0631
-40.5789
-40.0945
-39.6136
-39.1404
-38.6792
-38.2342
-37.8084
-37.4043
-37.0231
-36.6658
-36.3326
-36.0237
-35.7386
-35.4761
-35.2342
-35.0104
-34.8019
-34.606
-34.4206
-34.2443
-34.0761
-33.9151
-33.76
-33.6089
-33.4593
-33.3088
-33.1555
-32.9987
-32.8387
-32.6778
-32.5189
-32.3657
-32.2217
-32.0899
-31.9724
-31.8709
-31.7861
-31.7188
-31.6692
-31.637
-31.6216
-31.6215
-31.6348
-31.6595
-31.6938
-31.7368
-31.7881
-31.848
-31.917
-31.9953
-32.0828
-32.1787
-32.2822
-32.3928
-32.5104
-32.6355
-32.7693
-32.9127
-33.0664
-33.2305
-33.4045
-33.5877
-33.7796
-33.98
-34.1895
-34.409
-34.6393
-34.881
-35.1333
-35.3946
-35.6622
-35.9328
-46.8286
-46.6059
-46.393
-46.1884
-45.9871
-45.7808
-45.5593
-45.3116
-45.0291
-44.7062
-44.3419
-43.9392
-43.5046
-43.0457
-42.5696
-42.0821
-41.5866
-41.085
-40.5791
-40.0716
-39.5667
-39.0698
-38.5868
-38.1233
-37.6831
-37.2685
-36.8805
-36.5194
-36.1854
-35.8789
-35.5996
-35.3463
-35.1162
-34.9055
-34.71
-34.526
-34.3508
-34.1835
-34.0239
-33.872
-33.7268
-33.5859
-33.4455
-33.3015
-33.1502
-32.9899
-32.8213
-32.6474
-32.4733
-32.3045
-32.1463
-32.0027
-31.8762
-31.7682
-31.6792
-31.6098
-31.5606
-31.5315
-31.5216
-31.5288
-31.5499
-31.5816
-31.6212
-31.6671
-31.7196
-31.7799
-31.8495
-31.9294
-32.0191
-32.1175
-32.2227
-32.3333
-32.4492
-32.5714
-32.7021
-32.8434
-32.9967
-33.162
-33.3381
-33.5232
-33.716
-33.9163
-34.1254
-34.3453
-34.5787
-34.827
-35.09
-35.366
-35.6514
-35.9417
-46.8485
-46.6242
-46.4217
-46.2405
-46.0737
-45.9085
-45.7279
-45.5144
-45.2534
-44.9361
-44.5614
-44.1357
-43.6703
-43.1785
-42.6718
-42.1576
-41.6383
-41.1134
-40.582
-40.0453
-39.5085
-38.9793
-38.4669
-37.9792
-37.5212
-37.0948
-36.6994
-36.3342
-35.9991
-35.6953
-35.4236
-35.1833
-34.9705
-34.7791
-34.602
-34.4334
-34.2701
-34.1118
-33.9608
-33.8194
-33.6876
-33.5624
-33.4373
-33.3047
-33.158
-32.9933
-32.8115
-32.6177
-32.4201
-32.2282
-32.05
-31.891
-31.7536
-31.638
-31.544
-31.4719
-31.423
-31.3983
-31.397
-31.416
-31.4498
-31.4924
-31.5391
-31.5879
-31.6397
-31.6982
-31.7671
-31.8489
-31.9429
-32.0463
-32.155
-32.266
-32.3785
-32.4948
-32.6193
-32.7566
-32.9094
-33.0777
-33.2583
-33.4472
-33.6413
-33.8397
-34.045
-34.262
-34.4961
-34.7511
-35.0277
-35.3234
-35.6331
-35.9504
-46.8433
-46.6111
-46.4202
-46.2723
-46.1584
-46.0584
-45.9442
-45.7861
-45.5591
-45.2488
-44.8548
-44.3895
-43.8744
-43.3332
-42.7853
-42.2407
-41.6986
-41.1516
-40.5926
-40.0198
-39.4396
-38.8651
-38.3117
-37.7925
-37.3142
-36.8767
-36.4753
-36.1059
-35.7681
-35.4656
-35.2029
-34.9809
-34.7943
-34.6322
-34.4821
-34.3337
-34.1822
-34.03
-33.8843
-33.753
-33.6393
-33.5388
-33.4401
-33.3287
-33.1917
-33.0216
-32.8192
-32.5935
-32.3591
-32.1321
-31.926
-31.7482
-31.5996
-31.4769
-31.3771
-31.3005
-31.2505
-31.2312
-31.2432
-31.2817
-31.3367
-31.3972
-31.454
-31.504
-31.5502
-31.6012
-31.6661
-31.7504
-31.8529
-31.9671
-32.0838
-32.1961
-32.302
-32.4061
-32.5177
-32.6469
-32.7997
-32.975
-33.1661
-33.3635
-33.5598
-33.7528
-33.9473
-34.1536
-34.383
-34.6437
-34.9375
-35.26
-35.6033
-35.9579
-46.7924
-46.5386
-46.357
-46.2553
-46.2234
-46.229
-46.2242
-46.1572
-45.9849
-45.6825
-45.251
-44.7155
-44.1164
-43.4978
-42.8944
-42.3204
-41.7661
-41.2077
-40.6233
-40.005
-39.363
-38.721
-38.1077
-37.547
-37.049
-36.607
-36.2056
-35.8323
-35.4865
-35.1789
-34.9239
-34.728
-34.5829
-34.4684
-34.3602
-34.2385
-34.0957
-33.939
-33.7873
-33.6615
-33.5723
-33.5128
-33.4613
-33.3899
-33.2732
-33.0964
-32.8605
-32.582
-32.2875
-32.0061
-31.7613
-31.5636
-31.4083
-31.2828
-31.177
-31.0908
-31.0339
-31.0189
-31.0514
-31.1233
-31.2159
-31.3069
-31.3788
-31.4251
-31.4538
-31.484
-31.537
-31.6253
-31.7461
-31.8838
-32.0188
-32.1351
-32.2278
-32.3062
-32.3905
-32.503
-32.657
-32.8494
-33.0644
-33.2811
-33.4826
-33.6633
-33.8324
-34.0112
-34.2243
-34.4884
-34.8054
-35.1661
-35.5567
-35.9632
-46.6651
-46.3622
-46.179
-46.1381
-46.2347
-46.4148
-46.5938
-46.6805
-46.5981
-46.3025
-45.7974
-45.1332
-44.3867
-43.6409
-42.9614
-42.3722
-41.8396
-41.3016
-40.7032
-40.0247
-39.2867
-38.5356
-37.8282
-37.2116
-36.7034
-36.2791
-35.8954
-35.5196
-35.1502
-34.8169
-34.5599
-34.402
-34.3279
-34.296
-34.2577
-34.1741
-34.0295
-33.8409
-33.6533
-33.5176
-33.4628
-33.4753
-33.5114
-33.5164
-33.4414
-33.2566
-32.9634
-32.5936
-32.1969
-31.8275
-31.529
-31.318
-31.1741
-31.0603
-30.9488
-30.8388
-30.7568
-30.7382
-30.8027
-30.9352
-31.0973
-31.2441
-31.3402
-31.3716
-31.3551
-31.3338
-31.3568
-31.4534
-31.6144
-31.8044
-31.9804
-32.1079
-32.1742
-32.1973
-32.2222
-32.2993
-32.4587
-32.691
-32.9598
-33.2201
-33.4352
-33.5903
-33.703
-33.8192
-33.992
-34.2564
-34.61
-35.0289
-35.4866
-35.9648
-46.4169
-46.0135
-45.7962
-45.8231
-46.1258
-46.6025
-47.0967
-47.4473
-47.5188
-47.2243
-46.5732
-45.6695
-44.6562
-43.6886
-42.8987
-42.3426
-41.9214
-41.4825
-40.8986
-40.1307
-39.2292
-38.2878
-37.4183
-36.7202
-36.2372
-35.8929
-35.5742
-35.198
-34.7622
-34.3454
-34.0533
-33.9557
-34.0123
-34.1329
-34.2205
-34.1979
-34.0268
-33.7414
-33.4449
-33.2574
-33.2566
-33.4039
-33.6063
-33.7584
-33.7678
-33.5731
-33.1767
-32.6441
-32.0671
-31.5469
-31.1707
-30.9759
-30.8965
-30.8347
-30.7184
-30.5465
-30.3885
-30.3378
-30.4559
-30.7045
-31.0004
-31.2543
-31.3947
-31.3868
-31.2629
-31.1198
-31.0705
-31.1887
-31.4409
-31.745
-32.0115
-32.1687
-32.1822
-32.0858
-31.9787
-31.9766
-32.1551
-32.48
-32.8673
-33.2238
-33.4737
-33.578
-33.5684
-33.5452
-33.6275
-33.8955
-34.3204
-34.8354
-35.3868
-35.959
-45.9778
-45.3969
-45.0622
-45.1114
-45.7667
-46.7651
-47.8065
-48.6161
-48.9668
-48.6598
-47.7131
-46.364
-44.8603
-43.4809
-42.4997
-42.1189
-42.0292
-41.8723
-41.3592
-40.4292
-39.2297
-37.9367
-36.7617
-35.9195
-35.5715
-35.47
-35.3363
-34.9624
-34.3469
-33.695
-33.2667
-33.2878
-33.6047
-34.0175
-34.3425
-34.4357
-34.1891
-33.6582
-33.0796
-32.7286
-32.8372
-33.2533
-33.7739
-34.206
-34.3883
-34.1802
-33.5865
-32.7585
-31.8556
-31.059
-30.5512
-30.4676
-30.5935
-30.6876
-30.568
-30.234
-29.8656
-29.6944
-29.9213
-30.4055
-30.9641
-31.4276
-31.6627
-31.569
-31.1983
-30.7706
-30.5426
-30.7307
-31.1923
-31.7397
-32.1996
-32.4362
-32.3483
-31.9892
-31.5837
-31.3936
-31.6402
-32.1788
-32.8186
-33.3806
-33.7215
-33.7293
-33.453
-33.1189
-32.9952
-33.3082
-33.9007
-34.5892
-35.2569
-35.9269
-45.1992
-44.4265
-43.7756
-43.5276
-44.9139
-46.8663
-48.8507
-50.4461
-51.3623
-51.017
-49.4329
-47.2817
-44.8858
-42.7003
-41.2365
-41.4766
-42.2342
-42.7756
-42.4207
-41.1164
-39.3653
-37.416
-35.6266
-34.4076
-34.5511
-35.0941
-35.4447
-35.075
-33.9846
-32.7229
-31.8333
-32.1943
-33.0596
-34.0288
-34.7986
-35.1632
-34.7614
-33.6441
-32.387
-31.5383
-31.9757
-32.9525
-34.0692
-35.0135
-35.5714
-35.3427
-34.334
-32.9809
-31.4914
-30.1555
-29.3209
-29.6577
-30.3363
-30.8484
-30.7265
-29.9712
-29.0587
-28.4774
-29.0164
-29.999
-31.0648
-31.9297
-32.4038
-32.1497
-31.2155
-30.1337
-29.4151
-29.8787
-30.8198
-31.86
-32.7087
-33.1708
-32.9045
-31.959
-30.8778
-30.1815
-30.704
-31.7316
-32.8816
-33.8554
-34.4483
-34.2892
-33.4202
-32.3889
-31.7337
-32.3178
-33.3421
-34.3726
-35.1231
-35.7693
-43.5315
-43.2806
-41.909
-39.5901
-43.2462
-46.9215
-50.4551
-53.2547
-55.5746
-55.1585
-51.9697
-48.5518
-44.6086
-40.8806
-37.5197
-40.0895
-42.7509
-44.9698
-44.8496
-42.4474
-39.7864
-36.6656
-33.67
-30.934
-32.9557
-34.9956
-36.5906
-36.2255
-33.8695
-31.215
-28.5994
-30.3749
-32.3653
-34.3275
-35.8384
-36.9948
-36.364
-33.8315
-31.1067
-28.496
-30.3374
-32.4508
-34.6129
-36.3776
-37.8873
-37.6288
-35.5773
-33.4
-30.9059
-28.5304
-26.4037
-28.3558
-30.3192
-31.922
-31.7971
-29.9348
-27.7747
-25.6474
-27.4725
-29.4724
-31.4549
-32.9944
-34.1935
-33.7097
-31.4452
-28.9734
-26.5853
-28.3388
-30.3042
-32.256
-33.7741
-34.9538
-34.4386
-32.124
-29.6174
-27.2141
-29.0403
-31.1075
-33.1981
-34.8782
-36.2576
-35.8708
-33.621
-31.117
-28.6874
-30.6931
-32.7741
-34.5587
-35.1388
-34.9809
-37.9993
-43.7485
-41.407
-27.0492
-41.5509
-47.1811
-53.117
-56.7544
-63.7271
-63.2931
-54.8369
-50.5789
-44.022
-38.5326
-25.2633
-38.5707
-43.9053
-50.5329
-50.5648
-44.1513
-40.8704
-35.735
-31.3401
-20.6098
-31.3347
-35.5379
-40.5595
-40.2434
-34.1846
-29.6513
-19.0428
-28.2463
-31.7118
-35.2767
-37.389
-41.4002
-40.7056
-34.2962
-29.6625
-19.043
-28.3077
-31.879
-35.7294
-38.109
-42.7499
-42.4968
-37.0021
-34.2757
-30.1496
-26.5472
-17.6132
-27.0376
-30.8213
-35.4836
-35.3694
-30.3274
-26.4435
-17.126
-25.6768
-28.971
-32.4826
-34.5491
-38.4065
-37.8337
-31.973
-27.6926
-17.7914
-26.4934
-29.8081
-33.276
-35.3265
-39.1771
-38.5634
-32.565
-28.2079
-18.1557
-27.0292
-30.4493
-34.1053
-36.3336
-40.6098
-40.1347
-34.1872
-29.7374
-19.2536
-28.9596
-32.6325
-36.4786
-36.2163
-30.8964
-36.1698
-36.4461
-36.7125
-36.9656
-37.2027
-37.4214
-37.62
-37.7973
-37.9526
-38.0855
-38.196
-38.2841
-38.3499
-38.3937
-38.4156
-36.1756
-36.4555
-36.7252
-36.9813
-37.2206
-37.4411
-37.6408
-37.8188
-37.9745
-38.1075
-38.2179
-38.3058
-38.3715
-38.4152
-38.4369
-36.1873
-36.4747
-36.7512
-37.013
-37.257
-37.4808
-37.6829
-37.8622
-38.0185
-38.1516
-38.2618
-38.3494
-38.4147
-38.458
-38.4796
-36.205
-36.5042
-36.7913
-37.0621
-37.313
-37.5419
-37.7472
-37.9283
-38.0852
-38.2182
-38.3279
-38.4147
-38.4793
-38.5221
-38.5434
-36.2291
-36.5451
-36.8473
-37.1304
-37.3907
-37.626
-37.8351
-38.0181
-38.1753
-38.3077
-38.4163
-38.5018
-38.5653
-38.6072
-38.628
-36.2603
-36.5995
-36.9218
-37.221
-37.493
-37.7357
-37.9488
-38.133
-38.2898
-38.4206
-38.5271
-38.6106
-38.6722
-38.7128
-38.733
-36.2996
-36.6701
-37.019
-37.3384
-37.624
-37.8744
-38.0907
-38.275
-38.4297
-38.5574
-38.6605
-38.7408
-38.7998
-38.8385
-38.8577
-36.3491
-36.762
-37.1453
-37.4893
-37.7896
-38.0469
-38.2642
-38.4459
-38.596
-38.7184
-38.8161
-38.8917
-38.947
-38.9832
-39.0011
-36.4124
-36.8829
-37.3107
-37.6832
-37.9979
-38.2588
-38.473
-38.6478
-38.7895
-38.9034
-38.9934
-39.0626
-39.1128
-39.1457
-39.1619
-36.4958
-37.0461
-37.5309
-37.9347
-38.2598
-38.5174
-38.7209
-38.8822
-39.0103
-39.1117
-39.1911
-39.2517
-39.2956
-39.3242
-39.3384
-36.6087
-37.2745
-37.8317
-38.2646
-38.5889
-38.8299
-39.011
-39.1496
-39.2573
-39.3415
-39.4071
-39.457
-39.4932
-39.5168
-39.5285
-36.7636
-37.6109
-38.2564
-38.7022
-39.0006
-39.2021
-39.3436
-39.4478
-39.5273
-39.5894
-39.6381
-39.6755
-39.7029
-39.7208
-39.7298
-36.9777
-38.1483
-38.8801
-39.2858
-39.5074
-39.6339
-39.7137
-39.7703
-39.8144
-39.8503
-39.8798
-39.9035
-39.9214
-39.9334
-39.9394
-37.3222
-39.1241
-39.8309
-40.0537
-40.1078
-40.1117
-40.1068
-40.1054
-40.1093
-40.1172
-40.1269
-40.1367
-40.1452
-40.1514
-40.1546
-38.4214
-41.1937
-41.2648
-40.9906
-40.7568
-40.5975
-40.4963
-40.4351
-40.4001
-40.3817
-40.3734
-40.3707
-40.3708
-40.3717
-40.3725
-50.9064
-50.9183
-50.9428
-50.9812
-51.0357
-51.1098
-51.2091
-51.3425
-51.5246
-51.7824
-52.1696
-52.8113
-54.0567
-57.1079
-66.9491
-51.0427
-51.0573
-51.0873
-51.1343
-51.2012
-51.2922
-51.4142
-51.5782
-51.8022
-52.1186
-52.5894
-53.3451
-54.6857
-57.3518
-63.1473
-51.1689
-51.1857
-51.2201
-51.2739
-51.3501
-51.4532
-51.5903
-51.7722
-52.0156
-52.3476
-52.8116
-53.4728
-54.3944
-55.4226
-54.8968
-51.2836
-51.302
-51.3395
-51.398
-51.4803
-51.5907
-51.7354
-51.9234
-52.1675
-52.485
-52.8972
-53.4201
-54.0292
-54.5726
-54.7511
-51.3858
-51.4051
-51.4446
-51.5058
-51.5912
-51.7044
-51.8505
-52.0358
-52.2685
-52.5569
-52.9063
-53.3075
-53.7098
-53.9762
-53.8186
-51.4745
-51.4944
-51.5347
-51.5969
-51.6828
-51.7955
-51.9383
-52.1154
-52.3307
-52.5866
-52.8799
-53.194
-53.4849
-53.6744
-53.6838
-51.5497
-51.5696
-51.6098
-51.6715
-51.7561
-51.8656
-52.0023
-52.1683
-52.3647
-52.5906
-52.8397
-53.0966
-53.3305
-53.4981
-53.5538
-51.6112
-51.6307
-51.6702
-51.7303
-51.8122
-51.917
-52.046
-52.1999
-52.3783
-52.5786
-52.7946
-53.0151
-53.2221
-53.3997
-53.5487
-51.6592
-51.6781
-51.7163
-51.7742
-51.8525
-51.9517
-52.0725
-52.2146
-52.3767
-52.5559
-52.7471
-52.9429
-53.1341
-53.3216
-53.5575
-51.6941
-51.7123
-51.7489
-51.8041
-51.8782
-51.9716
-52.0841
-52.2152
-52.3631
-52.525
-52.697
-52.8739
-53.0486
-53.2101
-53.2848
-51.7166
-51.7339
-51.7686
-51.8209
-51.8908
-51.9782
-52.0829
-52.204
-52.3397
-52.4874
-52.6441
-52.8063
-52.9721
-53.1593
-53.5062
-51.7271
-51.7435
-51.7763
-51.8255
-51.8912
-51.973
-52.0704
-52.1826
-52.3078
-52.4438
-52.5878
-52.7361
-52.8808
-52.9979
-52.9276
-51.7263
-51.7417
-51.7726
-51.8189
-51.8805
-51.9569
-52.0478
-52.152
-52.2684
-52.3948
-52.5292
-52.6684
-52.8088
-52.9667
-53.3384
-51.7148
-51.7294
-51.7584
-51.8019
-51.8595
-51.931
-52.0158
-52.1131
-52.2218
-52.3405
-52.4677
-52.6
-52.7244
-52.7874
-52.5166
-51.6934
-51.7071
-51.7343
-51.775
-51.829
-51.8959
-51.9751
-52.0661
-52.1681
-52.2804
-52.4031
-52.537
-52.6826
-52.8402
-52.9948
-51.6626
-51.6754
-51.7009
-51.7391
-51.7896
-51.8522
-51.9263
-52.0115
-52.1072
-52.2133
-52.3312
-52.4658
-52.6325
-52.8952
-53.5793
-51.6229
-51.6349
-51.6589
-51.6946
-51.742
-51.8005
-51.8699
-51.9496
-52.039
-52.1381
-52.2481
-52.3725
-52.5156
-52.6579
-52.5
-51.575
-51.5862
-51.6087
-51.6422
-51.6866
-51.7414
-51.8064
-51.8808
-51.964
-52.0555
-52.1554
-52.2661
-52.3992
-52.6293
-53.4477
-51.5193
-51.5298
-51.5509
-51.5824
-51.624
-51.6754
-51.7362
-51.8058
-51.8833
-51.9672
-52.0557
-52.144
-52.2156
-52.1923
-51.5666
-51.4563
-51.4662
-51.486
-51.5155
-51.5546
-51.6029
-51.66
-51.7253
-51.7979
-51.8759
-51.9564
-52.0334
-52.0978
-52.1738
-52.6463
-51.3865
-51.3958
-51.4144
-51.4421
-51.4788
-51.5243
-51.5781
-51.6398
-51.7086
-51.783
-51.86
-51.9317
-51.9718
-51.8802
-51.168
-51.3102
-51.319
-51.3364
-51.3625
-51.3971
-51.4399
-51.4908
-51.5494
-51.6154
-51.6883
-51.7675
-51.8518
-51.9374
-52.0177
-52.0798
-51.2279
-51.2361
-51.2526
-51.2771
-51.3096
-51.35
-51.398
-51.4538
-51.5173
-51.5893
-51.6718
-51.771
-51.9066
-52.1679
-53.0341
-51.1399
-51.1477
-51.1631
-51.1861
-51.2167
-51.2547
-51.3
-51.3527
-51.4133
-51.483
-51.5648
-51.6648
-51.7885
-51.8983
-51.5526
-51.0466
-51.0539
-51.0683
-51.09
-51.1187
-51.1543
-51.1968
-51.2462
-51.303
-51.3682
-51.4454
-51.5423
-51.6799
-51.9451
-52.8675
-50.9482
-50.955
-50.9687
-50.989
-51.0159
-51.0492
-51.0888
-51.1346
-51.1866
-51.2453
-51.3125
-51.3914
-51.4828
-51.5355
-51.0186
-50.8451
-50.8515
-50.8643
-50.8834
-50.9086
-50.9398
-50.9766
-51.0186
-51.0655
-51.1166
-51.1715
-51.2319
-51.3126
-51.5214
-52.6147
-50.7375
-50.7436
-50.7556
-50.7736
-50.7972
-50.8264
-50.8606
-50.8993
-50.9415
-50.9852
-51.0269
-51.0582
-51.0534
-50.8933
-49.8212
-50.6258
-50.6315
-50.6428
-50.6597
-50.682
-50.7094
-50.7415
-50.7776
-50.8164
-50.8553
-50.8896
-50.9095
-50.9019
-50.8987
-51.4319
-50.51
-50.5154
-50.5262
-50.5422
-50.5633
-50.5892
-50.6197
-50.654
-50.691
-50.7287
-50.7622
-50.78
-50.7472
-50.5314
-49.4858
-50.3905
-50.3956
-50.4058
-50.421
-50.4411
-50.4659
-50.4951
-50.5284
-50.5653
-50.6049
-50.6458
-50.6856
-50.7196
-50.7405
-50.7412
-50.2673
-50.2722
-50.282
-50.2965
-50.3157
-50.3395
-50.3677
-50.4003
-50.4375
-50.4801
-50.5302
-50.5952
-50.701
-50.9636
-51.9974
-50.1408
-50.1454
-50.1548
-50.1687
-50.1871
-50.2099
-50.2372
-50.269
-50.3061
-50.35
-50.4043
-50.4763
-50.5736
-50.6511
-50.1616
-50.0109
-50.0154
-50.0243
-50.0377
-50.0553
-50.0773
-50.1035
-50.1341
-50.17
-50.2126
-50.266
-50.3397
-50.46
-50.7323
-51.7968
-49.8778
-49.8821
-49.8908
-49.9036
-49.9206
-49.9416
-49.9666
-49.9957
-50.029
-50.0676
-50.1135
-50.1707
-50.241
-50.2632
-49.6031
-49.7417
-49.7459
-49.7542
-49.7666
-49.783
-49.8031
-49.827
-49.8542
-49.8845
-49.9175
-49.9529
-49.9926
-50.0552
-50.2677
-51.5209
-49.6026
-49.6066
-49.6147
-49.6267
-49.6426
-49.6621
-49.6849
-49.7106
-49.7381
-49.7657
-49.7891
-49.7986
-49.7652
-49.5496
-48.2658
-49.4605
-49.4645
-49.4724
-49.4842
-49.4996
-49.5186
-49.5408
-49.5656
-49.5918
-49.6166
-49.6346
-49.6345
-49.6016
-49.5732
-50.1643
-49.3156
-49.3195
-49.3273
-49.3389
-49.3542
-49.3729
-49.395
-49.4197
-49.4463
-49.4723
-49.4923
-49.493
-49.4349
-49.1665
-47.9445
-49.1679
-49.1718
-49.1795
-49.191
-49.2061
-49.2249
-49.2471
-49.2727
-49.3012
-49.3319
-49.3633
-49.3922
-49.4143
-49.4217
-49.4075
-49.0174
-49.0213
-49.0289
-49.0403
-49.0555
-49.0743
-49.097
-49.1235
-49.1545
-49.191
-49.2355
-49.2962
-49.4039
-49.6916
-50.8622
-48.8641
-48.868
-48.8756
-48.887
-48.9021
-48.9211
-48.9441
-48.9714
-49.0041
-49.0442
-49.0959
-49.1675
-49.2686
-49.3482
-48.7826
-48.7081
-48.7119
-48.7195
-48.7309
-48.746
-48.765
-48.788
-48.8155
-48.8486
-48.8893
-48.9422
-49.0182
-49.1482
-49.4525
-50.6605
-48.5492
-48.553
-48.5606
-48.572
-48.5871
-48.6061
-48.6289
-48.6559
-48.6877
-48.7256
-48.7719
-48.8314
-48.9068
-48.9291
-48.1764
-48.3876
-48.3914
-48.399
-48.4103
-48.4255
-48.4443
-48.4668
-48.4929
-48.5227
-48.5558
-48.592
-48.6335
-48.7022
-48.9436
-50.3742
-48.2231
-48.2269
-48.2345
-48.2459
-48.261
-48.2798
-48.3021
-48.3275
-48.3554
-48.3837
-48.4078
-48.4167
-48.3776
-48.1321
-46.6683
-48.0558
-48.0596
-48.0673
-48.0788
-48.0939
-48.1128
-48.1351
-48.1605
-48.1878
-48.2143
-48.2337
-48.233
-48.1963
-48.1663
-48.8472
-47.8857
-47.8895
-47.8973
-47.9088
-47.9241
-47.9433
-47.966
-47.9922
-48.0208
-48.0497
-48.0727
-48.0744
-48.0103
-47.7066
-46.3099
-47.7127
-47.7166
-47.7243
-47.736
-47.7515
-47.771
-47.7945
-47.8221
-47.8538
-47.8889
-47.9259
-47.9613
-47.9908
-48.0054
-47.9964
-47.5368
-47.5407
-47.5485
-47.5603
-47.576
-47.5959
-47.6202
-47.6494
-47.6843
-47.7266
-47.7794
-47.8523
-47.9815
-48.3204
-49.679
-47.3581
-47.362
-47.3698
-47.3816
-47.3974
-47.4175
-47.4423
-47.4726
-47.5098
-47.5567
-47.6182
-47.7042
-47.8266
-47.927
-47.2835
-47.1764
-47.1802
-47.188
-47.1998
-47.2156
-47.2358
-47.2607
-47.2911
-47.3287
-47.3763
-47.4393
-47.5306
-47.6871
-48.0496
-49.468
-46.9917
-46.9956
-47.0033
-47.015
-47.0306
-47.0505
-47.0751
-47.1048
-47.1407
-47.1848
-47.2399
-47.3117
-47.4045
-47.4386
-46.5712
-46.8042
-46.808
-46.8156
-46.8271
-46.8425
-46.862
-46.8858
-46.9141
-46.9472
-46.9852
-47.028
-47.0783
-47.1628
-47.4531
-49.1441
-46.6138
-46.6176
-46.625
-46.6362
-46.6513
-46.6703
-46.6933
-46.7202
-46.7504
-46.7821
-46.8099
-46.8211
-46.778
-46.4945
-44.7799
-46.4206
-46.4242
-46.4315
-46.4424
-46.4571
-46.4756
-46.498
-46.524
-46.5527
-46.5813
-46.6025
-46.6015
-46.56
-46.5294
-47.3425
-46.2247
-46.2281
-46.2352
-46.2458
-46.26
-46.2781
-46.3001
-46.326
-46.3552
-46.3853
-46.4095
-46.4098
-46.3346
-45.978
-44.3288
-46.026
-46.0293
-46.0361
-46.0463
-46.0601
-46.0777
-46.0995
-46.1259
-46.1571
-46.1931
-46.2321
-46.2706
-46.3044
-46.3236
-46.3174
-45.8248
-45.8279
-45.8343
-45.844
-45.8571
-45.8742
-45.8956
-45.9224
-45.9559
-45.9983
-46.054
-46.1347
-46.2844
-46.6864
-48.3052
-45.621
-45.624
-45.6299
-45.6389
-45.6513
-45.6674
-45.688
-45.7143
-45.7484
-45.794
-45.8575
-45.9507
-46.0892
-46.2037
-45.435
-45.415
-45.4177
-45.423
-45.4313
-45.4426
-45.4574
-45.4764
-45.5009
-45.5332
-45.5769
-45.6391
-45.7354
-45.9107
-46.3337
-48.0203
-45.2068
-45.2092
-45.2139
-45.2212
-45.2311
-45.2442
-45.2609
-45.2823
-45.31
-45.3465
-45.3959
-45.4651
-45.56
-45.5858
-44.5377
-44.9967
-44.9987
-45.0027
-45.0088
-45.0172
-45.0282
-45.0421
-45.0594
-45.0809
-45.1069
-45.1377
-45.177
-45.2573
-45.5832
-47.5739
-44.785
-44.7865
-44.7897
-44.7946
-44.8013
-44.8099
-44.8207
-44.8338
-44.8487
-44.8634
-44.8722
-44.8603
-44.7841
-44.4238
-42.3679
-44.5718
-44.5729
-44.5753
-44.5788
-44.5837
-44.59
-44.5978
-44.607
-44.6166
-44.6237
-44.6199
-44.5882
-44.5083
-44.4412
-45.3668
-44.3575
-44.3582
-44.3596
-44.3617
-44.3647
-44.3687
-44.3738
-44.38
-44.3866
-44.3911
-44.3857
-44.3496
-44.2235
-43.7686
-41.8061
-44.1424
-44.1426
-44.143
-44.1437
-44.1448
-44.1465
-44.149
-44.1527
-44.1581
-44.165
-44.1715
-44.1734
-44.167
-44.1425
-44.0933
-43.9268
-43.9265
-43.9259
-43.9251
-43.9242
-43.9234
-43.9232
-43.9244
-43.9287
-43.9386
-43.9589
-44.0031
-44.1231
-44.5327
-46.3506
-43.7111
-43.7103
-43.7087
-43.7063
-43.7032
-43.6997
-43.6963
-43.6942
-43.6956
-43.7046
-43.7283
-43.7801
-43.8782
-43.9443
-42.9993
-43.4955
-43.4942
-43.4916
-43.4875
-43.4821
-43.4756
-43.4684
-43.4616
-43.4574
-43.4599
-43.4767
-43.525
-43.6554
-44.0573
-45.8717
-43.2806
-43.2788
-43.275
-43.2693
-43.2616
-43.2518
-43.2401
-43.2273
-43.2147
-43.2048
-43.2017
-43.2128
-43.2442
-43.1886
-41.9299
-43.0666
-43.0642
-43.0595
-43.0522
-43.0421
-43.0289
-43.0126
-42.993
-42.9703
-42.9445
-42.9153
-42.8866
-42.8934
-43.1547
-45.1973
-42.8538
-42.851
-42.8454
-42.8366
-42.8243
-42.808
-42.7872
-42.7611
-42.7282
-42.6859
-42.6271
-42.5357
-42.3658
-41.8832
-39.5864
-42.6426
-42.6395
-42.6331
-42.6231
-42.609
-42.5901
-42.5655
-42.5338
-42.4929
-42.4383
-42.3599
-42.2393
-42.0554
-41.8707
-42.6867
-42.4331
-42.4298
-42.4229
-42.412
-42.3966
-42.3758
-42.3485
-42.3132
-42.2674
-42.2066
-42.1206
-41.9867
-41.7456
-41.1627
-39.0744
-42.2256
-42.2222
-42.215
-42.2037
-42.1876
-42.1657
-42.137
-42.0999
-42.0525
-41.9919
-41.913
-41.8085
-41.673
-41.4992
-41.3008
-42.0202
-42.0168
-42.0096
-41.9984
-41.9822
-41.9602
-41.9312
-41.8939
-41.8469
-41.7894
-41.7215
-41.6518
-41.6272
-41.8521
-43.3944
-41.8168
-41.8135
-41.8068
-41.796
-41.7805
-41.7593
-41.7311
-41.6947
-41.6489
-41.5934
-41.5296
-41.4638
-41.4081
-41.2893
-40.2278
-41.6152
-41.6123
-41.6062
-41.5965
-41.5824
-41.5629
-41.5367
-41.5021
-41.4579
-41.4028
-41.3373
-41.2688
-41.2328
-41.3805
-42.6652
-41.4153
-41.4129
-41.4078
-41.3997
-41.3877
-41.3709
-41.3478
-41.3165
-41.2745
-41.2188
-41.1454
-41.0512
-40.9301
-40.6812
-39.4037
-41.2167
-41.2149
-41.2111
-41.205
-41.196
-41.1831
-41.1647
-41.1385
-41.1009
-41.0464
-40.9664
-40.8523
-40.716
-40.6954
-41.8562
-41.0189
-41.0178
-41.0156
-41.012
-41.0066
-40.9987
-40.9868
-40.9685
-40.9392
-40.8911
-40.8094
-40.6689
-40.4215
-39.8884
-38.0491
-40.8215
-40.8212
-40.8207
-40.8199
-40.8187
-40.8168
-40.8133
-40.8062
-40.7909
-40.7586
-40.6915
-40.5596
-40.3256
-39.9876
-40.0407
-40.6238
-40.6243
-40.6255
-40.6275
-40.6308
-40.6357
-40.6423
-40.6496
-40.6547
-40.6497
-40.6167
-40.5213
-40.3019
-39.8145
-38.5425
-40.4255
-40.4266
-40.4292
-40.4338
-40.4414
-40.4532
-40.4706
-40.4948
-40.5257
-40.5596
-40.5836
-40.569
-40.4642
-40.1856
-39.6978
-40.226
-40.2275
-40.2311
-40.2377
-40.2488
-40.2666
-40.2941
-40.3354
-40.3948
-40.4757
-40.5757
-40.6793
-40.7473
-40.701
-40.5197
-40.0249
-40.0266
-40.0306
-40.038
-40.051
-40.0728
-40.1081
-40.1637
-40.2493
-40.3778
-40.5634
-40.8144
-41.1099
-41.3093
-41.0581
-39.8223
-39.8237
-39.8272
-39.8341
-39.8469
-39.8694
-39.9078
-39.9711
-40.0742
-40.2399
-40.5037
-40.9187
-41.5392
-42.2298
-41.59
-39.6184
-39.619
-39.6209
-39.6256
-39.6355
-39.6548
-39.69
-39.7512
-39.8557
-40.033
-40.3374
-40.8804
-41.9198
-44.0734
-48.8473
-39.4136
-39.413
-39.4123
-39.413
-39.4173
-39.429
-39.4539
-39.5014
-39.5869
-39.7374
-40.0034
-40.4975
-41.5268
-44.0965
-52.2606
-53.9546
-45.5659
-42.896
-41.8124
-41.2818
-40.9887
-40.8166
-40.7133
-40.6513
-40.6147
-40.5937
-40.5821
-40.5762
-40.5734
-40.5724
-50.8189
-45.5686
-43.2773
-42.1754
-41.5927
-41.2597
-41.06
-40.9376
-40.8619
-40.8153
-40.7869
-40.7701
-40.7604
-40.7552
-40.753
-42.5476
-43.5155
-42.833
-42.1779
-41.7287
-41.4374
-41.2499
-41.1295
-41.0522
-41.003
-40.9719
-40.9526
-40.941
-40.9346
-40.9317
-42.3958
-42.6076
-42.3702
-42.0371
-41.7535
-41.5422
-41.3933
-41.2915
-41.2231
-41.1778
-41.1483
-41.1294
-41.1177
-41.111
-41.108
-42.1019
-42.0108
-41.974
-41.8618
-41.7266
-41.6031
-41.504
-41.4303
-41.3778
-41.3415
-41.3169
-41.3008
-41.2905
-41.2846
-41.2819
-40.7322
-41.3753
-41.6307
-41.7021
-41.6901
-41.6463
-41.5973
-41.5546
-41.5212
-41.4966
-41.4793
-41.4676
-41.46
-41.4555
-41.4534
-40.0651
-41.0083
-41.4154
-41.6002
-41.6742
-41.6924
-41.6863
-41.6726
-41.6584
-41.6465
-41.6375
-41.6311
-41.6268
-41.6243
-41.6231
-40.843
-41.0127
-41.3548
-41.5751
-41.6956
-41.7546
-41.7807
-41.7909
-41.794
-41.7942
-41.7935
-41.7927
-41.7921
-41.7917
-41.7916
-39.413
-40.8965
-41.3791
-41.6191
-41.758
-41.8391
-41.8863
-41.9143
-41.9315
-41.9422