/*--------------------------------*- C++ -*----------------------------------*\
| =========                 |                                                 |
| \\      /  F ield         | OpenFOAM: The Open Source CFD Toolbox           |
|  \\    /   O peration     | Version:  5.x                                   |
|   \\  /    A nd           | Web:      www.OpenFOAM.org                      |
|    \\/     M anipulation  |                                                 |
\*---------------------------------------------------------------------------*/
FoamFile
{
    version     2.0;
    format      ascii;
    class       volScalarField;
    location    "3.9";
    object      gradTy;
}
// * * * * * * * * * * * * * * * * * * * * * * * * * * * * * * * * * * * * * //

dimensions      [0 -1 0 1 0 0 0];

internalField   nonuniform List<scalar> 
6300
(
32275.5
32226.5
32177.6
32128.6
32079.8
32031.1
31982.4
31933.9
31885.6
31837.4
31789.4
31741.6
31694
31646.7
31599.6
-0.0149497
-0.0449139
-0.0750593
-0.105467
-0.136149
-0.167028
-0.19791
-0.228479
-0.258295
-0.286824
-0.313499
-0.337818
-0.359481
-0.378535
-0.395505
-0.0248391
-0.074647
-0.124808
-0.175477
-0.226705
-0.278384
-0.330208
-0.381646
-0.431936
-0.480118
-0.525137
-0.566006
-0.602058
-0.633235
-0.660362
-0.0346081
-0.10403
-0.174037
-0.244915
-0.316793
-0.389574
-0.46287
-0.535937
-0.607655
-0.676544
-0.740888
-0.798973
-0.849472
-0.891948
-0.927373
-0.0441743
-0.132836
-0.222404
-0.313362
-0.405987
-0.500262
-0.595772
-0.691593
-0.786217
-0.877532
-0.962917
-1.03954
-1.10493
-1.15774
-1.19877
-0.0534184
-0.160718
-0.269368
-0.380123
-0.49351
-0.609695
-0.728337
-0.848418
-0.968062
-1.08442
-1.19367
-1.29132
-1.37291
-1.43528
-1.47824
-0.0621984
-0.18725
-0.314222
-0.444252
-0.578232
-0.716665
-0.85946
-1.00567
-1.15319
-1.2984
-1.43602
-1.55915
-1.6601
-1.73219
-1.77266
-0.0703255
-0.211862
-0.356021
-0.50443
-0.658502
-0.819275
-0.987167
-1.16162
-1.3406
-1.51998
-1.69283
-1.84913
-1.97612
-2.06069
-2.09411
-0.0775674
-0.233852
-0.393569
-0.558945
-0.73207
-0.914761
-1.10831
-1.31303
-1.52762
-1.74804
-1.96619
-2.16835
-2.33451
-2.44024
-2.46402
-0.0836589
-0.252407
-0.425456
-0.605704
-0.796064
-0.999384
-1.21825
-1.45457
-1.70878
-1.97835
-2.25546
-2.5235
-2.75324
-2.90163
-2.92043
-0.0883196
-0.266657
-0.450137
-0.642346
-0.847091
-1.06845
-1.31072
-1.57821
-1.87453
-2.20107
-2.55374
-2.91685
-3.25318
-3.49246
-3.53209
-0.0912809
-0.275761
-0.466085
-0.666443
-0.881494
-1.11658
-1.37796
-1.67299
-2.01002
-2.39758
-2.84148
-3.33689
-3.85004
-4.28283
-4.42926
-0.0923223
-0.279019
-0.471991
-0.675839
-0.895851
-1.13841
-1.41154
-1.72572
-2.09491
-2.53769
-3.07761
-3.73906
-4.52719
-5.35952
-5.8839
-0.0913106
-0.275997
-0.467014
-0.669064
-0.887654
-1.12964
-1.40404
-1.7234
-2.10614
-2.58058
-3.19212
-4.01447
-5.16012
-6.74421
-8.52863
-0.0882325
-0.266639
-0.451
-0.645739
-0.856051
-1.08843
-1.35154
-1.65767
-2.02559
-2.48626
-3.09571
-3.96654
-5.3547
-7.92868
-13.7163
31556.7
31517.8
31479.2
31440.8
31402.5
31364.5
31326.7
31289.2
31251.9
31214.9
31178.1
31141.7
31105.6
31069.8
31034.3
30999.2
30964.5
30930.1
30896.1
30862.5
30829.2
30796.3
30763.8
30731.6
30699.8
30668.2
30637
30606.1
30575.5
30545.1
30515
30485.1
30455.5
30426.1
30396.8
30367.8
30338.9
30310.2
30281.6
30253.2
30224.9
30196.8
30168.8
30141
30113.3
30085.7
30058.2
30030.9
30003.6
29976.5
29949.5
29922.6
29895.8
29869
29842.3
29815.7
29789.2
29762.6
29736.1
29709.6
29683.1
29656.6
29630.1
29603.5
29577
29550.3
29523.7
29496.9
29470.1
29443.3
29416.3
29389.3
29362.1
29334.9
29307.5
29280.1
29252.5
29224.7
29196.9
29168.9
29140.7
29112.4
29083.9
29055.2
29026.3
28997.3
28968
28938.6
28909
28879.2
-0.410108
-0.423635
-0.438414
-0.455438
-0.475532
-0.49921
-0.526553
-0.557167
-0.590213
-0.624515
-0.658726
-0.691498
-0.721636
-0.748194
-0.7705
-0.788122
-0.800801
-0.808377
-0.810749
-0.807871
-0.799781
-0.78664
-0.768766
-0.746637
-0.720866
-0.692158
-0.661264
-0.628943
-0.595944
-0.562989
-0.530759
-0.499867
-0.470824
-0.444003
-0.419625
-0.397772
-0.378417
-0.361475
-0.34684
-0.334395
-0.323999
-0.315439
-0.308383
-0.30235
-0.296712
-0.290746
-0.28371
-0.274941
-0.263937
-0.250413
-0.234309
-0.215774
-0.19511
-0.172723
-0.149072
-0.124646
-0.0999289
-0.0753833
-0.051414
-0.0283331
-0.00632852
0.0145476
0.034364
0.0532699
0.0714422
0.0890372
0.106164
0.122885
0.139244
0.155298
0.171139
0.186898
0.202714
0.218703
0.234917
0.25133
0.26785
0.28435
0.300703
0.316809
0.332589
0.347955
0.362761
0.376757
0.389569
0.400702
0.409594
0.415671
0.41842
0.417448
-0.683195
-0.704172
-0.727247
-0.754322
-0.787016
-0.826362
-0.872574
-0.924942
-0.981895
-1.04122
-1.1004
-1.15693
-1.20869
-1.25404
-1.29192
-1.32172
-1.34312
-1.35592
-1.35996
-1.35512
-1.34138
-1.31898
-1.28844
-1.25059
-1.20653
-1.1575
-1.1048
-1.04975
-0.993609
-0.937606
-0.882922
-0.830634
-0.781642
-0.736594
-0.695844
-0.65947
-0.627356
-0.599301
-0.575104
-0.554602
-0.537627
-0.523901
-0.51292
-0.503871
-0.495635
-0.486877
-0.476213
-0.462402
-0.444524
-0.422081
-0.395014
-0.363645
-0.328563
-0.290515
-0.250324
-0.208838
-0.166906
-0.12535
-0.0849025
-0.0461317
-0.0093697
0.0253205
0.0581168
0.0893522
0.119397
0.148555
0.177003
0.204808
0.23199
0.258606
0.284814
0.310865
0.337056
0.363632
0.390707
0.41822
0.445968
0.473679
0.501108
0.528093
0.554553
0.580416
0.605512
0.629462
0.651623
0.671104
0.686859
0.697816
0.703027
0.70179
-0.955876
-0.981593
-1.01022
-1.04501
-1.08882
-1.14352
-1.20962
-1.286
-1.37004
-1.45803
-1.54575
-1.62913
-1.70483
-1.77051
-1.82485
-1.8673
-1.8977
-1.91596
-1.92184
-1.91502
-1.89533
-1.86292
-1.81851
-1.76336
-1.6992
-1.62796
-1.5516
-1.47199
-1.39093
-1.31018
-1.23149
-1.1565
-1.08663
-1.02285
-0.965609
-0.91488
-0.870301
-0.831419
-0.797895
-0.76958
-0.746426
-0.728262
-0.714526
-0.704076
-0.695165
-0.685611
-0.673103
-0.65558
-0.631547
-0.600271
-0.561781
-0.516728
-0.466153
-0.411266
-0.353313
-0.293544
-0.233219
-0.173599
-0.115856
-0.060919
-0.00931068
0.0389355
0.0842308
0.12726
0.16874
0.209201
0.248875
0.287733
0.325651
0.362606
0.398811
0.434728
0.470937
0.507938
0.545957
0.584863
0.624226
0.663501
0.702236
0.740215
0.777453
0.814059
0.849987
0.884813
0.917603
0.946938
0.971097
0.988305
0.996998
0.996031
-1.2289
-1.25489
-1.28441
-1.32282
-1.37501
-1.44437
-1.53196
-1.63614
-1.75264
-1.87537
-1.99748
-2.11254
-2.21557
-2.30349
-2.37509
-2.43041
-2.46998
-2.49403
-2.5022
-2.49371
-2.46782
-2.42438
-2.36428
-2.28939
-2.20236
-2.10609
-2.00336
-1.89661
-1.78811
-1.68011
-1.57504
-1.47535
-1.3832
-1.30004
-1.22637
-1.16181
-1.10542
-1.05622
-1.01359
-0.977534
-0.948456
-0.926673
-0.911834
-0.902502
-0.896068
-0.889049
-0.877675
-0.858592
-0.82947
-0.78932
-0.738473
-0.678243
-0.610435
-0.536913
-0.459405
-0.379537
-0.299002
-0.219629
-0.143253
-0.0713957
-0.0048901
0.0563231
0.113135
0.166929
0.219086
0.270522
0.321468
0.371567
0.420262
0.467253
0.512802
0.557756
0.603275
0.650383
0.699546
0.750472
0.802248
0.853748
0.904113
0.953071
1.00095
1.04837
1.09575
1.14281
1.18829
1.22997
1.26509
1.29082
1.30468
1.30491
-1.50391
-1.52304
-1.54571
-1.58071
-1.6364
-1.71888
-1.83038
-1.96844
-2.12619
-2.29355
-2.45928
-2.61322
-2.74799
-2.85991
-2.94868
-3.01616
-3.06454
-3.09489
-3.10651
-3.09741
-3.0655
-3.00981
-2.93128
-2.83285
-2.71876
-2.59348
-2.46085
-2.32373
-2.18451
-2.04579
-1.91081
-1.78332
-1.6668
-1.56352
-1.47398
-1.39695
-1.33019
-1.27151
-1.21979
-1.17543
-1.13997
-1.11508
-1.10121
-1.09676
-1.09782
-1.09877
-1.09336
-1.07608
-1.04329
-0.993794
-0.928702
-0.8507
-0.762975
-0.668337
-0.568928
-0.466531
-0.363154
-0.261383
-0.164189
-0.07421
0.00710526
0.0800012
0.146337
0.208907
0.270419
0.332501
0.395229
0.457371
0.51728
0.57393
0.627602
0.679923
0.733277
0.789825
0.850551
0.914813
0.980626
1.04559
1.10798
1.16745
1.22506
1.28269
1.34195
1.40307
1.4644
1.52242
1.5726
1.61039
1.63196
1.6347
-1.78491
-1.78605
-1.78918
-1.80872
-1.85913
-1.95151
-2.09043
-2.27233
-2.48581
-2.71396
-2.93798
-3.14139
-3.31322
-3.44955
-3.55284
-3.62928
-3.68497
-3.72261
-3.74053
-3.73384
-3.69732
-3.62799
-3.52682
-3.39873
-3.25113
-3.09136
-2.92465
-2.75373
-2.58008
-2.40594
-2.23564
-2.07534
-1.93118
-1.80708
-1.70343
-1.61715
-1.54318
-1.47665
-1.41527
-1.36034
-1.31614
-1.28746
-1.27688
-1.28292
-1.29959
-1.3175
-1.32598
-1.31575
-1.28103
-1.22058
-1.13738
-1.03701
-0.925328
-0.806489
-0.682614
-0.554796
-0.424855
-0.296407
-0.174598
-0.0644115
0.0313607
0.113262
0.185095
0.252544
0.321062
0.393684
0.469964
0.546523
0.619116
0.685025
0.744475
0.800732
0.858805
0.923372
0.996586
1.07704
1.16034
1.24125
1.31617
1.3846
1.44926
1.5148
1.58554
1.66315
1.74537
1.82625
1.89806
1.95339
1.98644
1.99351
-2.08023
-2.04608
-2.00889
-1.99214
-2.02124
-2.11692
-2.28838
-2.5305
-2.82406
-3.14007
-3.44611
-3.71476
-3.92927
-4.08649
-4.19534
-4.27196
-4.33103
-4.37841
-4.40961
-4.41288
-4.37601
-4.29163
-4.1607
-3.99229
-3.80058
-3.59878
-3.39407
-3.18722
-2.97587
-2.76008
-2.5456
-2.34361
-2.16617
-2.02067
-1.90732
-1.81911
-1.74489
-1.67382
-1.60086
-1.52924
-1.46935
-1.43317
-1.42802
-1.45316
-1.49896
-1.54919
-1.58491
-1.59005
-1.55515
-1.47948
-1.37011
-1.23897
-1.09732
-0.951231
-0.801313
-0.645456
-0.483741
-0.321206
-0.167608
-0.033193
0.076251
0.16168
0.230822
0.295292
0.366443
0.450238
0.544932
0.642012
0.731197
0.806032
0.866553
0.919521
0.975572
1.04504
1.13276
1.23572
1.34403
1.44607
1.53423
1.60767
1.67271
1.73988
1.81969
1.91705
2.02867
2.14354
2.24763
2.32882
2.37869
2.39251
-2.40637
-2.31028
-2.19896
-2.10927
-2.08714
-2.17284
-2.38418
-2.71418
-3.1295
-3.58008
-4.00756
-4.3656
-4.62726
-4.79249
-4.88366
-4.93925
-4.99326
-5.05681
-5.11819
-5.14898
-5.12234
-5.02149
-4.84774
-4.61856
-4.36366
-4.1095
-3.86561
-3.62624
-3.37706
-3.11135
-2.83651
-2.57549
-2.35409
-2.18683
-2.07387
-1.99977
-1.9409
-1.8725
-1.7833
-1.68001
-1.58714
-1.53292
-1.53421
-1.59232
-1.69062
-1.80042
-1.88651
-1.92062
-1.8866
-1.78546
-1.63276
-1.45462
-1.27423
-1.10003
-0.927096
-0.74308
-0.54234
-0.331666
-0.131523
0.0354528
0.157189
0.235013
0.284732
0.329866
0.395054
0.492525
0.61788
0.750267
0.865325
0.949011
1.00085
1.0352
1.07433
1.14172
1.24826
1.38792
1.53795
1.67207
1.7746
1.84396
1.89415
1.94784
2.02958
2.15142
2.30822
2.47725
2.63104
2.75015
2.8236
2.84736
-2.79523
-2.59618
-2.35766
-2.12885
-1.99749
-2.04749
-2.3087
-2.77456
-3.3837
-4.05281
-4.6685
-5.15464
-5.46354
-5.60451
-5.62257
-5.60811
-5.64104
-5.73759
-5.87
-5.96696
-5.9747
-5.85547
-5.61371
-5.28093
-4.9247
-4.60441
-4.32961
-4.07831
-3.80096
-3.47466
-3.10637
-2.74914
-2.46282
-2.27358
-2.18317
-2.15722
-2.14931
-2.09981
-1.98466
-1.81441
-1.64785
-1.55128
-1.5571
-1.67211
-1.86418
-2.08426
-2.26139
-2.34775
-2.31311
-2.1641
-1.93041
-1.67186
-1.4406
-1.24532
-1.06717
-0.863109
-0.613557
-0.325278
-0.0459902
0.170931
0.303047
0.350499
0.346921
0.337238
0.378847
0.496316
0.682349
0.885111
1.04624
1.13944
1.16192
1.14554
1.13392
1.18354
1.31755
1.52666
1.75623
1.94495
2.06409
2.10921
2.11183
2.11666
2.18295
2.33666
2.57131
2.83403
3.06541
3.2382
3.34098
3.3797
-3.30662
-2.93877
-2.50227
-2.0081
-1.64669
-1.61807
-1.93857
-2.62865
-3.5516
-4.60255
-5.51606
-6.19899
-6.54179
-6.59368
-6.40848
-6.20891
-6.19743
-6.36689
-6.67309
-6.91362
-7.01017
-6.86615
-6.51103
-5.97741
-5.43431
-5.03415
-4.7601
-4.56822
-4.29571
-3.89878
-3.36072
-2.8211
-2.43219
-2.21845
-2.20011
-2.28913
-2.41809
-2.42217
-2.26588
-1.94408
-1.60835
-1.42278
-1.42338
-1.64154
-1.998
-2.43061
-2.76761
-2.94983
-2.90499
-2.66542
-2.26457
-1.85055
-1.55586
-1.3667
-1.24526
-1.04939
-0.741276
-0.306683
0.128608
0.427786
0.570078
0.53873
0.417167
0.270021
0.252679
0.400666
0.722035
1.07921
1.32432
1.43102
1.37829
1.24838
1.10469
1.10324
1.27813
1.63539
2.03283
2.3175
2.45967
2.43514
2.32586
2.19653
2.21003
2.40491
2.79362
3.23555
3.58378
3.82667
3.95018
4.01813
-4.05256
-3.38022
-2.73006
-1.69641
-0.817113
-0.686503
-1.03694
-2.14817
-3.53602
-5.35111
-6.69667
-7.73423
-8.04014
-7.92553
-7.21649
-6.54031
-6.49485
-6.80096
-7.57246
-8.0694
-8.39393
-8.18281
-7.66749
-6.68972
-5.74034
-5.28469
-5.0747
-5.17673
-4.97219
-4.52879
-3.62004
-2.67885
-2.15222
-1.88498
-2.06549
-2.36669
-2.86993
-2.9788
-2.78885
-2.09729
-1.35625
-1.02987
-0.98015
-1.41563
-2.02607
-2.91862
-3.50075
-3.88297
-3.78147
-3.40322
-2.62202
-1.86175
-1.52358
-1.39499
-1.53498
-1.40175
-1.05562
-0.293597
0.494696
0.906038
1.08264
0.852362
0.519756
0.0114113
-0.116008
0.050919
0.70578
1.43036
1.79744
1.94795
1.70162
1.36696
0.866585
0.765046
0.972223
1.68247
2.46814
2.89167
3.09182
2.87968
2.56546
2.06751
1.97282
2.19101
2.93643
3.76919
4.25119
4.58447
4.6369
4.80429
-5.27377
-3.78991
-3.51016
-1.16229
1.0909
0.938138
0.960572
-1.26902
-2.90491
-6.7755
-8.32047
-10.3227
-10.1437
-10.1129
-7.97672
-5.96297
-6.2855
-6.56439
-8.86673
-9.47299
-10.5485
-9.93695
-9.48925
-7.36053
-5.33471
-5.18077
-4.93934
-6.22604
-5.99197
-5.82819
-3.92532
-1.93883
-1.4979
-0.905964
-1.75629
-2.15255
-3.88883
-3.96494
-4.03325
-2.32086
-0.506084
-0.237633
0.162692
-0.936849
-1.64699
-3.8527
-4.52082
-5.51172
-5.05545
-4.72026
-2.94828
-1.26406
-1.18845
-1.03546
-2.21708
-2.05965
-1.96776
-0.317271
1.40467
1.7234
2.18217
1.31445
0.87651
-0.794623
-0.907445
-1.00036
0.590196
2.29735
2.58345
3.0374
2.15321
1.72528
0.0552427
-0.0166154
-0.0570776
1.62192
3.42586
3.78844
4.31864
3.4722
3.07063
1.35873
1.28602
1.21874
2.95428
4.80864
5.1335
5.74745
5.15893
5.84582
-7.83324
-2.46552
-7.26825
-0.49169
6.46372
2.3108
6.20135
-1.24445
0.944505
-11.5484
-9.28551
-16.0517
-12.0332
-15.3319
-8.56012
-2.02092
-6.1385
-3.41351
-12.6029
-10.2003
-15.132
-11.4546
-13.7311
-7.88254
-2.23294
-5.2022
-2.60278
-9.46458
-6.90984
-9.6312
-4.35023
1.02754
-1.06024
2.15074
-2.10015
-0.00794634
-7.29762
-4.96148
-7.84103
-2.69099
2.57168
0.365618
3.46629
-1.0179
0.886659
-7.00003
-5.07512
-9.22347
-6.15408
-8.10533
-3.14717
1.65105
-0.963718
1.24693
-4.82638
-2.62212
-5.12324
-0.442786
4.33632
2.34016
5.19293
1.1587
3.01013
-3.84354
-1.72648
-4.47477
0.30777
5.2117
3.12883
6.05478
1.94884
3.87328
-3.05639
-0.842459
-3.56134
1.38246
6.46014
4.44477
7.52873
3.42508
5.46358
-1.7095
0.592292
-2.34866
2.80188
8.0514
5.60031
8.64272
3.84523
7.73169
-17.2113
13.5046
-27.7003
-0.078522
27.8326
-7.8992
27.7665
-15.094
25.9358
-37.5701
2.75131
-37.3111
-3.38629
-35.0526
-8.80899
17.2666
-15.8452
16.8938
-33.0321
-0.366727
-32.1131
-4.39913
-29.6739
-8.11865
13.2794
-13.2432
13.3573
-26.2637
-0.230864
-24.9584
-4.91537
14.7435
-8.25369
15.9517
-11.579
15.6456
-24.5687
1.55156
-23.2126
-3.22447
16.4032
-6.67405
17.6909
-10.3
17.5185
-24.2774
3.11471
-23.3302
-0.0244582
-21.4414
-3.11723
15.2394
-7.68912
15.4567
-19.357
3.5896
-18.6218
-0.711933
17.0228
-4.02711
18.1193
-7.47397
17.6775
-19.8119
4.45899
-18.7951
-0.151006
18.1855
-3.54002
19.1966
-6.94074
18.7697
-19.3362
5.43353
-18.1011
0.948911
19.7071
-2.24314
21.0877
-5.46788
21.12
-18.4226
7.44703
-17.5687
2.50601
22.3821
-1.84437
22.8265
-9.97424
14.9615
28846.1
28809.8
28773.2
28736.4
28699.3
28662
28624.4
28586.7
28548.8
28510.8
28472.6
28434.4
28396
28357.6
28319.2
0.412035
0.400433
0.383456
0.361735
0.336101
0.307461
0.276694
0.244575
0.211736
0.178642
0.145607
0.112802
0.0802904
0.0480482
0.0159933
0.692882
0.673223
0.644256
0.607159
0.563447
0.514749
0.462615
0.40839
0.353143
0.297648
0.242402
0.187668
0.133516
0.0798772
0.0265847
0.983666
0.955322
0.913187
0.859195
0.795774
0.725466
0.650624
0.573228
0.494803
0.416411
0.338694
0.261956
0.186232
0.111363
0.0370553
1.28918
1.2511
1.19387
1.12056
1.0349
0.940637
0.841121
0.739047
0.636397
0.534472
0.433994
0.335225
0.238094
0.142286
0.0473306
1.6156
1.56601
1.49061
1.39425
1.28257
1.16101
1.03412
0.905403
0.777236
0.651063
0.527562
0.406845
0.288626
0.172354
0.0573118
1.97082
1.90676
1.80832
1.68325
1.54011
1.38663
1.2289
1.07115
0.916044
0.764955
0.618326
0.47595
0.337201
0.201189
0.0668722
2.36557
2.28207
2.15282
1.99044
1.80802
1.61648
1.4236
1.23418
1.05078
0.874351
0.704811
0.541412
0.383027
0.228323
0.0758576
2.81493
2.70356
2.53079
2.318
2.08531
1.8478
1.61482
1.39112
1.17846
0.976806
0.78512
0.601836
0.425159
0.253208
0.0840892
3.3409
3.18699
2.94929
2.66593
2.36792
2.07498
1.7969
1.53701
1.29508
1.06924
0.85698
0.655621
0.462542
0.275251
0.0913746
3.97814
3.75402
3.41332
3.02854
2.64589
2.28777
1.96111
1.66504
1.3956
1.14805
0.917895
0.70109
0.494115
0.293863
0.0975261
4.79407
4.4362
3.92022
3.3878
2.89903
2.46928
2.09497
1.76659
1.47425
1.20947
0.965422
0.736697
0.518941
0.308545
0.102387
5.95736
5.27705
4.44413
3.70254
3.09257
2.59531
2.18301
1.83218
1.52537
1.25014
0.997603
0.76131
0.536388
0.318982
0.105863
7.92347
6.27052
4.8781
3.8858
3.17325
2.63638
2.20968
1.85381
1.54493
1.26809
1.01351
0.774528
0.5463
0.325121
0.107942
11.7509
7.00252
4.9116
3.78917
3.07819
2.56742
2.16562
1.82852
1.53246
1.26374
1.0138
0.776959
0.549143
0.327249
0.10872
-0.0837712
-0.253034
-0.427558
-0.611206
-0.808436
-1.0247
-1.26704
-1.54516
-1.87331
-2.27425
-2.78793
-3.49345
-4.57166
-6.50745
-10.8158
-0.0783925
-0.236618
-0.399226
-0.569354
-0.750484
-0.946627
-1.16255
-1.40405
-1.67819
-1.9932
-2.3564
-2.76358
-3.15027
-3.16885
-1.12797
-0.0720131
-0.217156
-0.365668
-0.519857
-0.682099
-0.854807
-1.04027
-1.24022
-1.45462
-1.67864
-1.89436
-2.04799
-1.9844
-1.26018
1.35064
-0.0648565
-0.195349
-0.328162
-0.46476
-0.606439
-0.754114
-0.907911
-1.0663
-1.22431
-1.36977
-1.47547
-1.48337
-1.27702
-0.661843
0.458701
-0.0571565
-0.171927
-0.288019
-0.406128
-0.526604
-0.649156
-0.772334
-0.892595
-1.00263
-1.08843
-1.12454
-1.06768
-0.853246
-0.41453
0.224556
-0.0491376
-0.147583
-0.24647
-0.345845
-0.445318
-0.543752
-0.638765
-0.725954
-0.797697
-0.841488
-0.838142
-0.761559
-0.585071
-0.306349
-0.0113574
-0.040999
-0.122928
-0.204575
-0.285482
-0.364741
-0.44071
-0.510614
-0.57001
-0.612118
-0.627185
-0.60253
-0.524844
-0.387817
-0.209422
-0.0581632
-0.032906
-0.0984633
-0.163183
-0.226249
-0.286433
-0.341861
-0.389742
-0.426052
-0.445275
-0.440389
-0.403667
-0.329302
-0.219233
-0.0935822
-0.00742875
-0.0249873
-0.0745728
-0.122926
-0.169002
-0.211407
-0.248231
-0.276881
-0.29394
-0.295145
-0.275646
-0.230879
-0.158493
-0.0614066
0.0497511
0.166103
-0.0173359
-0.0515298
-0.0842372
-0.114286
-0.140233
-0.160249
-0.172041
-0.172813
-0.159367
-0.128409
-0.0772163
-0.0047717
0.0867109
0.189553
0.281427
-0.0100129
-0.0295098
-0.0473794
-0.0624
-0.0731509
-0.0779495
-0.0748211
-0.0615317
-0.035724
0.00481178
0.0617405
0.135799
0.227001
0.337049
0.48172
-0.00305378
-0.00861029
-0.0124844
-0.0134575
-0.0101761
-0.00112276
0.0153772
0.0410896
0.0777206
0.126684
0.188854
0.264541
0.354255
0.460585
0.585382
0.00352626
0.0111311
0.0204127
0.0325531
0.0488186
0.070566
0.0992147
0.136164
0.182632
0.23942
0.306636
0.383626
0.470018
0.571384
0.722583
0.00972633
0.0297185
0.0513418
0.0757229
0.104036
0.137497
0.177326
0.224664
0.28041
0.344949
0.417687
0.496268
0.575431
0.647663
0.727291
0.0155553
0.0471839
0.0803735
0.116187
0.15571
0.200043
0.250264
0.307365
0.372116
0.444817
0.524734
0.608596
0.685702
0.718889
0.556344
0.0210282
0.063576
0.107601
0.1541
0.204078
0.258538
0.318467
0.384794
0.458339
0.53971
0.629095
0.725707
0.826518
0.926123
1.04526
0.0261635
0.0789529
0.133131
0.189625
0.249365
0.313276
0.38227
0.457255
0.539164
0.629074
0.728495
0.839998
0.968231
1.11989
1.28737
0.0309814
0.0933769
0.15707
0.222923
0.291793
0.364525
0.44196
0.524953
0.614475
0.711872
0.819563
0.942772
1.09375
1.30278
1.6525
0.0355026
0.106912
0.179529
0.254154
0.331573
0.412552
0.497836
0.588167
0.684361
0.78756
0.899912
1.02635
1.17905
1.38809
1.72561
0.0397475
0.119619
0.200615
0.283475
0.368919
0.457634
0.550257
0.647357
0.749429
0.85694
0.970542
1.0918
1.2253
1.38428
1.59979
0.0437353
0.131557
0.220426
0.311031
0.404032
0.500048
0.599619
0.703145
0.810767
0.922136
1.03593
1.14886
1.25391
1.34132
1.44126
0.0474837
0.142779
0.239055
0.336953
0.43709
0.54004
0.646286
0.756139
0.86955
0.985697
1.10199
1.2115
1.29484
1.28978
0.949555
0.0510087
0.153334
0.25658
0.361351
0.468237
0.577791
0.6905
0.806713
0.92648
1.0492
1.17285
1.29243
1.39719
1.47112
1.54046
0.0543244
0.163262
0.273067
0.384314
0.497572
0.6134
0.732336
0.854874
0.981405
1.11209
1.24662
1.38377
1.52103
1.65576
1.78848
0.0574437
0.172603
0.288577
0.405914
0.525166
0.646903
0.771728
0.900316
1.03349
1.17237
1.31865
1.47515
1.64672
1.84192
2.08209
0.0603791
0.181391
0.303165
0.426217
0.551078
0.678314
0.808564
0.942633
1.08167
1.22754
1.38363
1.5562
1.75611
1.99698
2.26443
0.0631431
0.189664
0.316889
0.445298
0.575385
0.707683
0.842808
0.98156
1.12515
1.27568
1.43726
1.61837
1.83714
2.13372
2.6077
0.0657491
0.197461
0.329817
0.463249
0.598203
0.735144
0.874593
1.01719
1.16386
1.3162
1.4774
1.65454
1.86423
2.14742
2.61158
0.0682113
0.204827
0.342022
0.48018
0.619686
0.760918
0.90425
1.05005
1.19869
1.35062
1.50656
1.66823
1.84038
2.03561
2.27464
0.0705444
0.211806
0.353583
0.496213
0.640018
0.78529
0.932254
1.08099
1.2313
1.38231
1.53184
1.67481
1.80057
1.89352
1.99033
0.0727628
0.218442
0.364578
0.511466
0.659379
0.808544
0.959087
1.11091
1.26346
1.41509
1.56176
1.69348
1.7836
1.7489
1.26501
0.0748798
0.224775
0.375076
0.526044
0.677919
0.830899
0.98509
1.1404
1.2963
1.45136
1.60215
1.74119
1.85336
1.91635
1.96066
0.0769075
0.230843
0.385139
0.54003
0.695741
0.852472
1.01038
1.16953
1.32979
1.49064
1.6508
1.80771
1.95735
2.09691
2.23496
0.0788566
0.236676
0.394815
0.553486
0.712903
0.873287
1.03488
1.19795
1.36292
1.53044
1.70177
1.87943
2.06844
2.27865
2.53396
0.0807369
0.242303
0.404148
0.566461
0.729444
0.893325
1.0584
1.22513
1.39434
1.56766
1.74842
1.94339
2.16491
2.42923
2.72235
0.0825583
0.247753
0.413183
0.579011
0.745411
0.912593
1.08085
1.25066
1.42297
1.59975
1.7853
1.98905
2.23178
2.55996
3.08801
0.0843307
0.253055
0.421969
0.591201
0.760885
0.931175
1.10227
1.27451
1.44855
1.62582
1.80962
2.0078
2.2394
2.55205
3.07282
0.0860645
0.258242
0.430562
0.603117
0.77599
0.949255
1.12297
1.29719
1.47196
1.64742
1.82404
2.00349
2.19083
2.39979
2.65061
0.0877702
0.263345
0.439019
0.61485
0.790873
0.967081
1.14339
1.31954
1.49494
1.66825
1.83662
1.99385
2.12732
2.21861
2.30919
0.0894573
0.268395
0.447396
0.62649
0.805677
0.984899
1.16398
1.34248
1.51941
1.69259
1.85701
2.00087
2.09318
2.03807
1.46305
0.091134
0.273416
0.455735
0.638104
0.820508
1.00288
1.18503
1.36656
1.54656
1.72305
1.89179
2.04383
2.16148
2.2187
2.24969
0.0928064
0.278427
0.464067
0.649733
0.835414
1.02107
1.20659
1.39178
1.5762
1.75894
1.93824
2.11084
2.27181
2.41771
2.55868
0.0944788
0.28344
0.47241
0.661392
0.850389
1.0394
1.22845
1.41761
1.60705
1.79727
1.98942
2.18608
2.39271
2.62026
2.89559
0.0961542
0.288462
0.48077
0.67308
0.865402
1.05778
1.25031
1.44329
1.63742
1.83431
2.03753
2.25453
2.49918
2.78978
3.10988
0.097835
0.293501
0.489157
0.684797
0.88043
1.07609
1.27192
1.46825
1.66594
1.86702
2.07616
2.30393
2.57385
2.93896
3.53025
0.0995237
0.298564
0.497581
0.696559
0.895485
1.09436
1.29325
1.49233
1.69217
1.89418
2.10194
2.32419
2.58251
2.93124
3.51528
0.101223
0.303658
0.506059
0.708395
0.910624
1.11269
1.3145
1.51595
1.71693
1.91742
2.11775
2.31956
2.52849
2.76027
3.0391
0.102934
0.308791
0.514608
0.720344
0.925929
1.13124
1.33606
1.53996
1.74211
1.94082
2.13261
2.31015
2.45868
2.55677
2.65171
0.10466
0.313968
0.523241
0.732435
0.941472
1.1502
1.35832
1.56524
1.76972
1.96909
2.15746
2.32104
2.42395
2.35561
1.68731
0.106397
0.319186
0.531955
0.744674
0.957278
1.16964
1.38149
1.59229
1.80092
2.00503
2.19962
2.37422
2.50819
2.57121
2.60237
0.108143
0.324432
0.540729
0.757029
0.973304
1.18949
1.40544
1.6209
1.83532
2.04764
2.25574
2.45577
2.64177
2.80907
2.96677
0.109891
0.329687
0.549528
0.769439
0.989441
1.20955
1.42981
1.65029
1.87124
2.09321
2.31754
2.54721
2.78844
3.05372
3.37449
0.111633
0.334927
0.558305
0.781823
1.00555
1.22957
1.45408
1.67943
1.9065
2.13719
2.37571
2.63076
2.91848
3.25999
3.63428
0.113361
0.340124
0.567009
0.7941
1.02149
1.24932
1.47781
1.70745
1.93929
2.17579
2.42247
2.69174
3.01128
3.44364
4.14414
0.115066
0.34525
0.575594
0.806203
1.03718
1.26866
1.50082
1.73398
1.96892
2.20738
2.45361
2.71796
3.02582
3.44123
4.13425
0.116738
0.35028
0.584021
0.818083
1.05258
1.28759
1.52317
1.75936
1.99614
2.23362
2.47227
2.7141
2.96577
3.24619
3.58566
0.118368
0.355186
0.592248
0.829699
1.06765
1.30617
1.54517
1.78436
2.02294
2.25909
2.48882
2.70354
2.88581
3.01027
3.13277
0.119945
0.359938
0.600229
0.841
1.08239
1.32446
1.5671
1.80985
2.05148
2.28907
2.51587
2.71567
2.84604
2.77585
1.9959
0.121457
0.364495
0.607901
0.851903
1.0967
1.34241
1.58901
1.83617
2.08286
2.32659
2.56174
2.77616
2.94561
3.03442
3.08953
0.122887
0.368811
0.615181
0.862289
1.11041
1.35979
1.6106
1.86287
2.11634
2.37011
2.62207
2.86802
3.10124
3.31653
3.52445
0.124218
0.372829
0.621972
0.872005
1.12329
1.37623
1.63122
1.8888
2.14965
2.41491
2.68664
2.96884
3.2694
3.60388
4.01083
0.12543
0.376492
0.628167
0.880879
1.13508
1.39128
1.65011
1.9125
2.17995
2.45527
2.744
3.05703
3.41408
3.84102
4.31477
0.126505
0.379741
0.633665
0.888751
1.14552
1.40455
1.66659
1.93274
2.20483
2.48637
2.78456
3.11475
3.51031
4.04579
4.90479
0.127426
0.382527
0.638375
0.895489
1.15442
1.41577
1.68027
1.9489
2.2232
2.50595
2.80295
3.12721
3.50945
4.02604
4.8798
0.12818
0.384804
0.642228
0.900996
1.16167
1.42485
1.69113
1.96119
2.23573
2.51567
2.80251
3.09951
3.41536
3.77226
4.20149
0.128753
0.386539
0.645166
0.905206
1.16723
1.43181
1.69943
1.9704
2.24455
2.52066
2.79506
3.05885
3.29281
3.46837
3.65129
0.129136
0.3877
0.647143
0.908063
1.17106
1.4367
1.70544
1.97744
2.25206
2.52686
2.79505
3.03904
3.21085
3.15949
2.29397
0.129319
0.38826
0.648114
0.909507
1.17308
1.43948
1.70925
1.9827
2.25948
2.53768
2.81192
3.06946
3.28391
3.41607
3.52172
0.129296
0.388198
0.648034
0.909461
1.17318
1.43995
1.71053
1.98569
2.26595
2.55128
2.84042
3.12993
3.41415
3.69118
3.98467
0.129063
0.387496
0.646865
0.907848
1.1712
1.4378
1.70869
1.98518
2.26893
2.56227
2.86871
3.19418
3.54944
3.95495
4.45625
0.128619
0.386153
0.644593
0.904612
1.16699
1.43271
1.70301
1.97966
2.26529
2.56418
2.88383
3.23783
3.64991
4.15228
4.73296
0.127973
0.38419
0.64124
0.899757
1.1605
1.42446
1.69296
1.96795
2.25248
2.55171
2.87514
3.24124
3.68772
4.29532
5.25422
0.127142
0.381657
0.636884
0.893375
1.15181
1.41309
1.67844
1.94965
2.22948
2.52247
2.83687
3.18892
3.61369
4.19451
5.15448
0.126155
0.378638
0.631663
0.885661
1.14118
1.39893
1.65989
1.9254
2.19735
2.4784
2.77251
3.08617
3.43134
3.83048
4.29597
0.125048
0.375249
0.625779
0.876913
1.12901
1.38256
1.6382
1.89672
2.15894
2.42528
2.69462
2.96164
3.21155
3.42046
3.65736
0.123872
0.371639
0.619489
0.867512
1.11586
1.36477
1.61454
1.8655
2.11769
2.37008
2.6184
2.84905
3.02025
2.99108
2.19293
0.122681
0.367979
0.613089
0.857902
1.10235
1.3464
1.59009
1.83345
2.07632
2.31773
2.55447
2.77783
2.96811
3.09577
3.22001
0.121538
0.364456
0.606904
0.848563
1.08913
1.32831
1.56589
1.80177
2.03597
2.26864
2.49988
2.72965
2.95947
3.20291
3.52544
0.120505
0.361267
0.601276
0.840001
1.07688
1.31135
1.5429
1.77127
1.9967
2.22056
2.44632
2.6815
2.94141
3.25516
3.67118
0.119645
0.358604
0.596548
0.832732
1.06633
1.29643
1.52214
1.74282
1.95855
2.17118
2.38622
2.61623
2.88599
3.23644
3.70805
0.119017
0.356651
0.593051
0.827274
1.05821
1.28457
1.5049
1.71783
1.92257
2.12014
2.31575
2.52341
2.77455
3.13361
3.72587
0.118667
0.355559
0.591071
0.824104
1.05329
1.27691
1.49282
1.69853
1.89158
2.07048
2.23692
2.40044
2.58818
2.86889
3.43748
0.118625
0.355427
0.590816
0.823611
1.05225
1.27462
1.48782
1.68804
1.87043
2.02948
2.16015
2.26068
2.33728
2.40429
2.42593
0.118895
0.356279
0.592367
0.826006
1.05557
1.27869
1.49185
1.68992
1.86549
2.0082
2.10433
2.13758
2.09305
1.97124
1.85554
0.119445
0.358032
0.595618
0.831231
1.06337
1.28968
1.50636
1.70743
1.88338
2.01926
2.09219
2.06853
1.9025
1.53397
0.838751
0.120207
0.360478
0.600239
0.838862
1.07522
1.30733
1.53171
1.74239
1.92907
2.07406
2.14713
2.09839
1.8526
1.32358
0.504104
0.121069
0.363278
0.605645
0.848059
1.09002
1.33034
1.56657
1.79401
2.00373
2.1788
2.2867
2.26512
1.99941
1.3149
0.164833
0.121879
0.365966
0.611013
0.857559
1.10595
1.35618
1.60753
1.85792
2.10246
2.3302
2.51623
2.60142
2.43705
1.62952
-0.879858
0.122459
0.367983
0.615334
0.865767
1.1206
1.38123
1.64914
1.92589
2.21288
2.5106
2.81584
3.11105
3.3213
3.12593
1.08131
0.122618
0.368727
0.617505
0.870907
1.1312
1.40119
1.6846
1.98674
2.31586
2.68584
3.1225
3.67975
4.48711
5.90616
9.0953
8.92734
5.5948
4.15444
3.35778
2.82233
2.41202
2.07039
1.77047
1.49776
1.24373
1.00289
0.771477
0.546697
0.326332
0.108502
0.467372
2.67706
2.92792
2.75257
2.48941
2.21635
1.95103
1.69636
1.4516
1.2152
0.985597
0.761312
0.541027
0.323523
0.107661
-1.55593
1.11969
1.9973
2.20828
2.16335
2.01532
1.8243
1.61539
1.39962
1.18196
0.964597
0.748362
0.533418
0.319571
0.106441
-0.276091
0.810917
1.52957
1.8417
1.90889
1.84418
1.71001
1.53918
1.34896
1.14851
0.942802
0.734507
0.525042
0.315118
0.105049
-0.134573
0.7579
1.34412
1.64524
1.74606
1.7213
1.62118
1.47646
1.30539
1.11871
0.922795
0.721456
0.516981
0.310761
0.103675
0.153684
0.917542
1.35665
1.58788
1.67047
1.65076
1.56333
1.43205
1.27265
1.09531
0.906552
0.710579
0.510127
0.307007
0.102481
1.07835
1.30272
1.51354
1.6338
1.66595
1.62726
1.53594
1.40716
1.25238
1.07984
0.895316
0.702813
0.505124
0.304227
0.101592
1.59916
1.69732
1.73334
1.74094
1.71064
1.64033
1.53458
1.40033
1.24445
1.0727
0.889622
0.698651
0.50235
0.302657
0.101086
2.52709
2.13509
1.97292
1.87445
1.78315
1.67802
1.55301
1.40855
1.24754
1.07343
0.889417
0.698194
0.501937
0.302392
0.100996
2.83119
2.41332
2.16828
2.00303
1.8653
1.72954
1.58495
1.42826
1.25974
1.08105
0.894229
0.701242
0.503812
0.303415
0.101322
2.95178
2.57155
2.30829
2.11253
1.9461
1.78722
1.62531
1.45622
1.27902
1.09433
0.903336
0.707384
0.507756
0.30562
0.102032
2.98573
2.64859
2.40144
2.2017
2.0217
1.847
1.67068
1.48981
1.30352
1.112
0.915903
0.716089
0.513448
0.308839
0.103073
2.95026
2.66319
2.46172
2.27719
2.09365
1.90793
1.71923
1.52719
1.33169
1.13286
0.931068
0.726772
0.520517
0.312866
0.104381
2.72862
2.61837
2.51027
2.35207
2.16713
1.97094