/*--------------------------------*- C++ -*----------------------------------*\
| =========                 |                                                 |
| \\      /  F ield         | OpenFOAM: The Open Source CFD Toolbox           |
|  \\    /   O peration     | Version:  5.x                                   |
|   \\  /    A nd           | Web:      www.OpenFOAM.org                      |
|    \\/     M anipulation  |                                                 |
\*---------------------------------------------------------------------------*/
FoamFile
{
    version     2.0;
    format      ascii;
    class       volScalarField;
    location    "3.9";
    object      T;
}
// * * * * * * * * * * * * * * * * * * * * * * * * * * * * * * * * * * * * * //

dimensions      [0 0 0 1 0 0 0];

internalField   nonuniform List<scalar> 
6300
(
322.755
322.265
321.776
321.287
320.799
320.311
319.825
319.34
318.856
318.375
317.895
317.417
316.941
316.468
315.997
322.755
322.265
321.775
321.286
320.798
320.31
319.824
319.338
318.855
318.373
317.893
317.415
316.939
316.466
315.995
322.755
322.264
321.774
321.285
320.796
320.308
319.821
319.335
318.851
318.369
317.888
317.41
316.934
316.46
315.989
322.754
322.263
321.773
321.283
320.793
320.304
319.817
319.331
318.846
318.363
317.882
317.403
316.927
316.453
315.981
322.754
322.262
321.771
321.28
320.789
320.3
319.812
319.325
318.839
318.355
317.874
317.394
316.917
316.443
315.971
322.754
322.261
321.768
321.276
320.785
320.294
319.805
319.317
318.83
318.346
317.863
317.383
316.905
316.43
315.957
322.753
322.259
321.765
321.272
320.78
320.288
319.797
319.308
318.82
318.334
317.85
317.368
316.89
316.414
315.941
322.752
322.257
321.762
321.267
320.773
320.28
319.788
319.297
318.807
318.32
317.834
317.351
316.872
316.395
315.922
322.752
322.255
321.758
321.262
320.766
320.271
319.777
319.284
318.793
318.303
317.816
317.331
316.85
316.373
315.899
322.751
322.252
321.754
321.256
320.759
320.262
319.766
319.271
318.777
318.285
317.795
317.308
316.825
316.346
315.873
322.75
322.25
321.75
321.25
320.751
320.251
319.753
319.255
318.759
318.264
317.771
317.281
316.795
316.315
315.841
322.749
322.247
321.745
321.243
320.742
320.24
319.739
319.239
318.739
318.241
317.744
317.25
316.76
316.276
315.802
322.748
322.244
321.74
321.237
320.733
320.229
319.725
319.222
318.719
318.216
317.714
317.214
316.718
316.229
315.752
322.747
322.242
321.736
321.23
320.724
320.218
319.711
319.204
318.697
318.19
317.682
317.175
316.669
316.169
315.684
322.746
322.239
321.731
321.223
320.715
320.207
319.697
319.187
318.676
318.164
317.65
317.134
316.615
316.094
315.582
315.568
315.18
314.794
314.409
314.027
313.647
313.269
312.894
312.521
312.151
311.784
311.419
311.058
310.7
310.346
309.995
309.648
309.304
308.964
308.628
308.295
307.966
307.641
307.319
307
306.685
306.372
306.063
305.757
305.453
305.152
304.853
304.557
304.262
303.97
303.679
303.39
303.103
302.817
302.533
302.251
301.969
301.689
301.411
301.134
300.858
300.583
300.31
300.037
299.766
299.496
299.227
298.958
298.691
298.424
298.158
297.892
297.626
297.361
297.096
296.831
296.566
296.301
296.035
295.769
295.503
295.236
294.969
294.701
294.432
294.162
293.892
293.621
293.348
293.074
292.8
292.524
292.246
291.968
291.687
291.406
291.122
290.837
290.551
290.262
289.971
289.679
289.385
289.089
288.79
315.565
315.177
314.791
314.406
314.024
313.644
313.266
312.89
312.517
312.147
311.779
311.415
311.053
310.695
310.341
309.99
309.642
309.299
308.959
308.622
308.29
307.961
307.635
307.314
306.995
306.68
306.368
306.059
305.753
305.449
305.148
304.85
304.553
304.259
303.967
303.676
303.388
303.101
302.815
302.531
302.248
301.967
301.687
301.409
301.132
300.856
300.581
300.308
300.035
299.764
299.494
299.225
298.957
298.69
298.423
298.157
297.891
297.626
297.361
297.096
296.831
296.566
296.301
296.036
295.77
295.504
295.237
294.97
294.702
294.433
294.164
293.893
293.622
293.35
293.076
292.801
292.525
292.248
291.97
291.69
291.408
291.125
290.84
290.553
290.265
289.974
289.682
289.388
289.091
288.793
315.56
315.171
314.785
314.4
314.018
313.637
313.259
312.883
312.509
312.138
311.77
311.406
311.044
310.685
310.331
309.979
309.632
309.288
308.948
308.612
308.279
307.95
307.625
307.304
306.986
306.671
306.359
306.051
305.745
305.442
305.141
304.843
304.547
304.253
303.961
303.671
303.383
303.096
302.81
302.527
302.244
301.963
301.683
301.405
301.128
300.852
300.577
300.304
300.032
299.761
299.491
299.222
298.954
298.687
298.421
298.155
297.89
297.625
297.36
297.096
296.831
296.566
296.302
296.036
295.771
295.505
295.238
294.971
294.704
294.435
294.166
293.896
293.625
293.352
293.079
292.805
292.529
292.252
291.974
291.694
291.412
291.129
290.845
290.558
290.27
289.98
289.687
289.393
289.097
288.799
315.552
315.163
314.776
314.391
314.008
313.627
313.248
312.872
312.497
312.126
311.757
311.392
311.029
310.67
310.315
309.963
309.616
309.272
308.931
308.595
308.263
307.934
307.61
307.289
306.971
306.657
306.346
306.038
305.733
305.431
305.131
304.833
304.538
304.244
303.953
303.663
303.375
303.089
302.803
302.52
302.238
301.957
301.677
301.399
301.122
300.846
300.572
300.298
300.027
299.756
299.486
299.218
298.95
298.684
298.418
298.153
297.888
297.623
297.359
297.095
296.831
296.567
296.302
296.037
295.772
295.507
295.241
294.974
294.706
294.438
294.169
293.899
293.629
293.357
293.084
292.81
292.534
292.258
291.98
291.7
291.419
291.136
290.852
290.566
290.278
289.988
289.696
289.402
289.105
288.807
315.541
315.152
314.765
314.379
313.996
313.614
313.234
312.857
312.482
312.109
311.74
311.373
311.01
310.65
310.294
309.942
309.594
309.25
308.909
308.573
308.241
307.913
307.589
307.268
306.952
306.638
306.328
306.021
305.717
305.416
305.117
304.82
304.525
304.233
303.942
303.653
303.365
303.079
302.794
302.511
302.229
301.948
301.669
301.391
301.114
300.838
300.564
300.291
300.019
299.749
299.48
299.212
298.945
298.679
298.414
298.149
297.885
297.621
297.358
297.094
296.831
296.567
296.303
296.039
295.774
295.509
295.243
294.977
294.71
294.442
294.174
293.904
293.634
293.363
293.09
292.816
292.542
292.265
291.988
291.709
291.428
291.146
290.862
290.576
290.288
289.998
289.707
289.413
289.117
288.819
315.527
315.138
314.75
314.365
313.981
313.598
313.218
312.839
312.462
312.088
311.717
311.349
310.985
310.624
310.268
309.915
309.566
309.222
308.881
308.545
308.214
307.886
307.562
307.243
306.927
306.615
306.306
306
305.697
305.397
305.099
304.804
304.51
304.218
303.928
303.64
303.353
303.067
302.783
302.5
302.219
301.938
301.659
301.381
301.104
300.828
300.554
300.281
300.01
299.74
299.472
299.204
298.938
298.673
298.409
298.145
297.882
297.619
297.356
297.094
296.831
296.568
296.304
296.041
295.777
295.512
295.247
294.981
294.715
294.448
294.18
293.911
293.641
293.37
293.098
292.825
292.55
292.275
291.998
291.719
291.439
291.157
290.874
290.588
290.301
290.012
289.721
289.427
289.131
288.833
315.511
315.121
314.734
314.348
313.963
313.58
313.198
312.818
312.439
312.063
311.69
311.321
310.955
310.593
310.235
309.882
309.533
309.188
308.847
308.511
308.18
307.853
307.53
307.212
306.897
306.586
306.279
305.975
305.673
305.375
305.078
304.784
304.492
304.202
303.912
303.625
303.339
303.054
302.77
302.488
302.206
301.926
301.647
301.369
301.092
300.816
300.542
300.269
299.998
299.729
299.461
299.195
298.93
298.666
298.402
298.14
297.878
297.616
297.355
297.093
296.831
296.569
296.306
296.043
295.78
295.516
295.251
294.986
294.721
294.454
294.186
293.918
293.649
293.378
293.107
292.835
292.561
292.286
292.01
291.732
291.452
291.171
290.888
290.604
290.317
290.029
289.738
289.445
289.149
288.851
315.491
315.102
314.715
314.328
313.943
313.559
313.176
312.793
312.413
312.034
311.659
311.287
310.919
310.555
310.196
309.842
309.492
309.147
308.807
308.471
308.14
307.813
307.492
307.175
306.862
306.553
306.247
305.945
305.646
305.349
305.055
304.762
304.472
304.182
303.894
303.608
303.322
303.038
302.755
302.473
302.192
301.912
301.633
301.355
301.078
300.802
300.528
300.255
299.984
299.716
299.449
299.184
298.92
298.657
298.395
298.134
297.873
297.613
297.353
297.092
296.831
296.57
296.308
296.046
295.783
295.52
295.256
294.992
294.727
294.461
294.194
293.927
293.658
293.388
293.118
292.846
292.574
292.3
292.024
291.747
291.468
291.188
290.905
290.622
290.336
290.049
289.759
289.466
289.171
288.873
315.469
315.08
314.694
314.308
313.923
313.537
313.152
312.767
312.383
312.001
311.621
311.246
310.876
310.511
310.151
309.796
309.446
309.1
308.759
308.423
308.092
307.767
307.447
307.132
306.821
306.514
306.211
305.911
305.614
305.32
305.028
304.737
304.449
304.161
303.874
303.588
303.304
303.02
302.738
302.457
302.177
301.897
301.618
301.34
301.062
300.785
300.51
300.238
299.967
299.699
299.434
299.17
298.908
298.647
298.386
298.127
297.868
297.61
297.351
297.092
296.833
296.572
296.311
296.049
295.787
295.525
295.262
294.999
294.735
294.47
294.204
293.936
293.668
293.399
293.13
292.859
292.588
292.315
292.041
291.764
291.486
291.206
290.925
290.642
290.358
290.072
289.783
289.492
289.197
288.899
315.443
315.056
314.671
314.286
313.902
313.516
313.128
312.739
312.35
311.963
311.578
311.199
310.826
310.459
310.099
309.743
309.393
309.046
308.704
308.368
308.037
307.713
307.395
307.082
306.775
306.471
306.17
305.873
305.578
305.287
304.998
304.711
304.424
304.139
303.853
303.568
303.283
303
302.719
302.44
302.161
301.882
301.603
301.323
301.044
300.766
300.49
300.217
299.947
299.68
299.416
299.154
298.894
298.635
298.376
298.119
297.863
297.606
297.35
297.093
296.835
296.575
296.314
296.052
295.791
295.53
295.269
295.007
294.745
294.48
294.214
293.947
293.679
293.411
293.143
292.874
292.604
292.333
292.06
291.784
291.506
291.227
290.946
290.665
290.382
290.098
289.811
289.521
289.228
288.93
315.413
315.028
314.646
314.265
313.883
313.496
313.106
312.712
312.315
311.92
311.528
311.143
310.767
310.399
310.039
309.684
309.333
308.985
308.642
308.304
307.973
307.65
307.335
307.026
306.723
306.422
306.124
305.829
305.538
305.25
304.965
304.682
304.4
304.116
303.831
303.545
303.261
302.978
302.698
302.421
302.144
301.866
301.587
301.306
301.025
300.744
300.465
300.191
299.921
299.656
299.395
299.137
298.879
298.622
298.365
298.11
297.856
297.603
297.35
297.096
296.839
296.579
296.318
296.056
295.795
295.535
295.276
295.017
294.756
294.493
294.227
293.959
293.691
293.423
293.156
292.89
292.623
292.354
292.082
291.806
291.528
291.248
290.968
290.689
290.409
290.128
289.844
289.556
289.264
288.967
315.377
314.997
314.621
314.246
313.869
313.483
313.089
312.687
312.279
311.87
311.468
311.075
310.695
310.328
309.971
309.619
309.269
308.919
308.571
308.229
307.897
307.576
307.265
306.963
306.666
306.37
306.075
305.781
305.492
305.209
304.931
304.654
304.376
304.094
303.809
303.522
303.235
302.952
302.674
302.401
302.128
301.853
301.574
301.29
301.004
300.717
300.434
300.158
299.888
299.627
299.371
299.117
298.863
298.608
298.352
298.098
297.848
297.6
297.353
297.102
296.846
296.586
296.322
296.058
295.796
295.538
295.283
295.029
294.771
294.509
294.242
293.972
293.701
293.433
293.168
292.907
292.645
292.379
292.109
291.832
291.552
291.27
290.99
290.713
290.438
290.163
289.883
289.598
289.307
289.01
315.332
314.961
314.592
314.231
313.866
313.483
313.085
312.669
312.244
311.813
311.394
310.989
310.606
310.241
309.894
309.553
309.203
308.849
308.49
308.142
307.805
307.486
307.181
306.892
306.608
306.317
306.023
305.726
305.438
305.159
304.893
304.629
304.356
304.078
303.789
303.498
303.203
302.919
302.643
302.379
302.117
301.846
301.568
301.278
300.984
300.685
300.395
300.113
299.845
299.588
299.343
299.099
298.849
298.594
298.334
298.082
297.835
297.597
297.36
297.114
296.86
296.596
296.328
296.056
295.792
295.536
295.29
295.045
294.792
294.532
294.261
293.987
293.708
293.438
293.176
292.924
292.673
292.412
292.144
291.864
291.579
291.29
291.008
290.733
290.468
290.204
289.929
289.648
289.357
289.063
315.272
314.921
314.55
314.223
313.891
313.502
313.109
312.661
312.221
311.735
311.302
310.869
310.492
310.125
309.811
309.5
309.143
308.787
308.393
308.04
307.686
307.377
307.075
306.816
306.559
306.266
305.976
305.657
305.372
305.092
304.852
304.615
304.346
304.076
303.774
303.479
303.157
302.873
302.593
302.354
302.118
301.849
301.577
301.272
300.971
300.64
300.344
300.047
299.787
299.532
299.312
299.092
298.839
298.587
298.307
298.057
297.808
297.594
297.381
297.136
296.89
296.612
296.34
296.042
295.778
295.518
295.295
295.075
294.823
294.57
294.285
294.007
293.703
293.433
293.167
292.939
292.714
292.455
292.195
291.902
291.614
291.298
291.016
290.737
290.497
290.259
289.986
289.713
289.41
289.127
315.176
314.912
314.446
314.221
313.996
313.529
313.209
312.644
312.263
311.582
311.208
310.668
310.365
309.934
309.723
309.513
309.08
308.781
308.238
307.938
307.502
307.257
306.907
306.735
306.563
306.213
305.971
305.537
305.3
304.967
304.806
304.649
304.335
304.121
303.747
303.498
303.057
302.819
302.486
302.325
302.168
301.853
301.637
301.258
301.002
300.545
300.294
299.928
299.722
299.426
299.28
299.132
298.829
298.619
298.238
298.029
297.732
297.589
297.447
297.161
296.964
296.619
296.388
295.979
295.758
295.446
295.296
295.15
294.855
294.653
294.3
294.064
293.647
293.421
293.104
292.951
292.802
292.501
292.294
291.932
291.689
291.256
291.02
290.686
290.524
290.365
290.041
289.821
289.434
289.217
288.46
288.097
287.731
287.363
286.992
286.619
286.243
285.866
285.487
285.107
284.726
284.343
283.96
283.576
283.192
288.463
288.1
287.734
287.365
286.994
286.621
286.245
285.868
285.489
285.108
284.727
284.344
283.961
283.577
283.192
288.468
288.105
287.739
287.37
286.998
286.625
286.249
285.871
285.492
285.111
284.729
284.345
283.962
283.577
283.192
288.477
288.113
287.746
287.377
287.005
286.631
286.254
285.876
285.496
285.114
284.731
284.348
283.963
283.578
283.193
288.488
288.124
287.757
287.387
287.014
286.639
286.262
285.883
285.502
285.119
284.735
284.351
283.965
283.579
283.193
288.502
288.138
287.77
287.4
287.026
286.65
286.271
285.891
285.509
285.125
284.74
284.354
283.968
283.581
283.194
288.52
288.155
287.787
287.415
287.04
286.662
286.283
285.901
285.517
285.132
284.746
284.359
283.971
283.583
283.194
288.542
288.176
287.807
287.433
287.057
286.677
286.296
285.912
285.527
285.14
284.753
284.364
283.975
283.585
283.195
288.568
288.201
287.83
287.455
287.076
286.695
286.311
285.925
285.538
285.15
284.76
284.37
283.979
283.587
283.196
288.598
288.23
287.857
287.48
287.098
286.714
286.328
285.94
285.55
285.16
284.768
284.376
283.983
283.59
283.197
288.634
288.265
287.889
287.508
287.124
286.736
286.347
285.956
285.564
285.171
284.777
284.383
283.988
283.593
283.198
288.678
288.305
287.925
287.54
287.151
286.76
286.367
285.973
285.578
285.183
284.787
284.39
283.993
283.596
283.199
288.73
288.353
287.967
287.576
287.182
286.786
286.389
285.991
285.593
285.195
284.796
284.398
283.998
283.599
283.2
288.797
288.411
288.014
287.614
287.213
286.812
286.411
286.01
285.609
285.208
284.807
284.405
284.004
283.602
283.201
288.889
288.479
288.065
287.654
287.245
286.838
286.433
286.028
285.624
285.22
284.817
284.413
284.009
283.606
283.202
322.745
322.236
321.727
321.218
320.707
320.197
319.685
319.173
318.658
318.142
317.623
317.099
316.567
316.018
315.424
322.745
322.234
321.724
321.213
320.701
320.189
319.675
319.16
318.644
318.124
317.601
317.072
316.534
315.979
315.387
322.744
322.232
321.72
321.208
320.695
320.181
319.666
319.149
318.63
318.109
317.584
317.053
316.514
315.965
315.406
322.744
322.231
321.718
321.204
320.69
320.174
319.658
319.14
318.619
318.096
317.57
317.038
316.501
315.958
315.41
322.743
322.229
321.715
321.2
320.685
320.168
319.651
319.131
318.61
318.086
317.559
317.028
316.493
315.954
315.413
322.743
322.228
321.713
321.197
320.681
320.164
319.645
319.125
318.603
318.078
317.551
317.021
316.487
315.951
315.414
322.742
322.227
321.711
321.195
320.677
320.159
319.64
319.119
318.597
318.072
317.545
317.015
316.483
315.949
315.413
322.742
322.226
321.709
321.192
320.675
320.156
319.636
319.115
318.592
318.068
317.541
317.012
316.481
315.947
315.413
322.742
322.225
321.708
321.191
320.673
320.154
319.634
319.112
318.589
318.065
317.538
317.01
316.479
315.947
315.413
322.742
322.225
321.707
321.19
320.671
320.152
319.632
319.11
318.587
318.063
317.537
317.009
316.48
315.948
315.415
322.741
322.224
321.707
321.189
320.67
320.151
319.631
319.109
318.587
318.063
317.537
317.01
316.481
315.95
315.418
322.741
322.224
321.707
321.189
320.67
320.151
319.631
319.109
318.587
318.063
317.538
317.011
316.483
315.954
315.423
322.741
322.224
321.707
321.189
320.67
320.151
319.631
319.11
318.588
318.065
317.54
317.014
316.487
315.958
315.427
322.741
322.224
321.707
321.189
320.671
320.152
319.632
319.112
318.59
318.067
317.543
317.018
316.491
315.963
315.435
322.742
322.225
321.707
321.19
320.672
320.153
319.634
319.114
318.593
318.07
317.547
317.022
316.496
315.969
315.44
322.742
322.225
321.708
321.191
320.673
320.155
319.636
319.117
318.596
318.075
317.552
317.028
316.503
315.975
315.445
322.742
322.226
321.709
321.192
320.675
320.158
319.639
319.12
318.6
318.079
317.558
317.034
316.51
315.984
315.457
322.742
322.226
321.71
321.194
320.678
320.16
319.643
319.124
318.605
318.085
317.564
317.042
316.519
315.994
315.466
322.742
322.227
321.712
321.196
320.68
320.164
319.647
319.129
318.611
318.091
317.571
317.05
316.528
316.006
315.484
322.743
322.228
321.713
321.198
320.683
320.167
319.651
319.134
318.617
318.098
317.579
317.059
316.538
316.017
315.495
322.743
322.229
321.715
321.201
320.686
320.171
319.656
319.14
318.623
318.106
317.587
317.068
316.549
316.029
315.511
322.743
322.23
321.717
321.204
320.69
320.176
319.661
319.146
318.63
318.114
317.596
317.078
316.559
316.039
315.519
322.744
322.232
321.719
321.207
320.694
320.18
319.667
319.152
318.638
318.122
317.606
317.089
316.57
316.05
315.527
322.744
322.233
321.721
321.21
320.698
320.185
319.673
319.159
318.645
318.131
317.616
317.1
316.583
316.064
315.545
322.745
322.234
321.724
321.213
320.702
320.191
319.679
319.167
318.654
318.141
317.627
317.112
316.596
316.078
315.557
322.745
322.236
321.726
321.216
320.706
320.196
319.685
319.174
318.663
318.151
317.638
317.124
316.61
316.095
315.579
322.746
322.237
321.729
321.22
320.711
320.202
319.692
319.182
318.672
318.161
317.65
317.138
316.625
316.111
315.595
322.746
322.239
321.731
321.224
320.716
320.208
319.699
319.191
318.681
318.172
317.662
317.151
316.641
316.13
315.623
322.747
322.241
321.734
321.228
320.721
320.214
319.707
319.199
318.691
318.183
317.674
317.165
316.656
316.147
315.638
322.747
322.242
321.737
321.232
320.726
320.221
319.715
319.208
318.701
318.194
317.687
317.179
316.671
316.164
315.661
322.748
322.244
321.74
321.236
320.732
320.227
319.722
319.217
318.712
318.206
317.7
317.193
316.686
316.179
315.671
322.749
322.246
321.743
321.24
320.737
320.234
319.731
319.227
318.722
318.218
317.713
317.207
316.701
316.193
315.682
322.749
322.248
321.746
321.245
320.743
320.241
319.739
319.236
318.733
318.23
317.726
317.222
316.717
316.211
315.704
322.75
322.25
321.75
321.249
320.749
320.248
319.747
319.246
318.745
318.243
317.74
317.237
316.734
316.228
315.719
322.751
322.252
321.753
321.254
320.755
320.256
319.756
319.256
318.756
318.256
317.755
317.253
316.751
316.249
315.746
322.751
322.254
321.756
321.259
320.761
320.263
319.765
319.267
318.768
318.269
317.77
317.27
316.77
316.269
315.764
322.752
322.256
321.76
321.264
320.767
320.271
319.774
319.277
318.78
318.282
317.785
317.287
316.789
316.291
315.798
322.753
322.258
321.763
321.269
320.774
320.279
319.783
319.288
318.792
318.296
317.8
317.303
316.807
316.311
315.816
322.753
322.26
321.767
321.274
320.78
320.287
319.793
319.299
318.804
318.31
317.815
317.32
316.825
316.331
315.842
322.754
322.262
321.771
321.279
320.787
320.295
319.802
319.31
318.817
318.324
317.83
317.337
316.842
316.348
315.854
322.755
322.265
321.774
321.284
320.794
320.303
319.812
319.321
318.83
318.338
317.846
317.353
316.86
316.365
315.866
322.756
322.267
321.778
321.29
320.801
320.311
319.822
319.333
318.843
318.353
317.862
317.371
316.879
316.385
315.892
322.756
322.269
321.782
321.295
320.808
320.32
319.832
319.344
318.856
318.367
317.878
317.388
316.898
316.406
315.909
322.757
322.272
321.786
321.301
320.815
320.329
319.843
319.356
318.87
318.382
317.895
317.407
316.918
316.429
315.94
322.758
322.274
321.79
321.306
320.822
320.338
319.853
319.368
318.883
318.398
317.912
317.426
316.94
316.452
315.961
322.759
322.277
321.794
321.312
320.829
320.347
319.864
319.381
318.897
318.414
317.93
317.445
316.961
316.478
315.999
322.76
322.279
321.799
321.318
320.837
320.356
319.875
319.393
318.911
318.429
317.947
317.465
316.983
316.501
316.019
322.761
322.282
321.803
321.324
320.845
320.365
319.886
319.406
318.926
318.446
317.965
317.484
317.003
316.524
316.049
322.761
322.284
321.807
321.33
320.852
320.375
319.897
319.419
318.941
318.462
317.983
317.503
317.024
316.543
316.063
322.762
322.287
321.812
321.336
320.86
320.384
319.908
319.432
318.955
318.478
318.001
317.523
317.044
316.563
316.077
322.763
322.29
321.816
321.342
320.868
320.394
319.92
319.445
318.971
318.495
318.019
317.543
317.065
316.586
316.107
322.764
322.292
321.821
321.349
320.877
320.404
319.932
319.459
318.986
318.512
318.038
317.564
317.088
316.61
316.127
322.765
322.295
321.825
321.355
320.885
320.414
319.944
319.473
319.002
318.53
318.058
317.585
317.112
316.637
316.163
322.766
322.298
321.83
321.362
320.893
320.425
319.956
319.487
319.018
318.548
318.078
317.608
317.136
316.664
316.187
322.767
322.301
321.835
321.368
320.902
320.435
319.968
319.501
319.034
318.566
318.098
317.63
317.162
316.695
316.232
322.768
322.304
321.839
321.375
320.911
320.446
319.981
319.516
319.051
318.585
318.119
317.653
317.187
316.722
316.256
322.769
322.307
321.844
321.382
320.919
320.457
319.994
319.531
319.067
318.604
318.14
317.675
317.211
316.749
316.292
322.77
322.31
321.849
321.389
320.928
320.468
320.007
319.546
319.084
318.623
318.16
317.698
317.235
316.772
316.309
322.771
322.313
321.854
321.396
320.937
320.479
320.02
319.561
319.102
318.642
318.182
317.721
317.259
316.795
316.325
322.772
322.316
321.859
321.403
320.947
320.49
320.033
319.576
319.119
318.661
318.203
317.744
317.284
316.822
316.36
322.773
322.319
321.865
321.41
320.956
320.501
320.047
319.592
319.137
318.681
318.225
317.768
317.311
316.85
316.384
322.774
322.322
321.87
321.418
320.965
320.513
320.06
319.608
319.155
318.702
318.248
317.794
317.339
316.882
316.427
322.775
322.325
321.875
321.425
320.975
320.525
320.074
319.624
319.173
318.722
318.271
317.819
317.367
316.914
316.456
322.776
322.328
321.88
321.432
320.984
320.536
320.088
319.64
319.192
318.743
318.294
317.846
317.397
316.95
316.509
322.777
322.331
321.886
321.44
320.994
320.548
320.102
319.656
319.21
318.764
318.318
317.872
317.426
316.981
316.537
322.778
322.335
321.891
321.447
321.004
320.56
320.116
319.673
319.229
318.785
318.341
317.897
317.454
317.013
316.579
322.779
322.338
321.896
321.455
321.014
320.572
320.131
319.689
319.248
318.806
318.364
317.923
317.481
317.039
316.598
322.78
322.341
321.902
321.463
321.023
320.584
320.145
319.706
319.266
318.827
318.388
317.948
317.508
317.065
316.617
322.781
322.344
321.907
321.47
321.033
320.596
320.159
319.722
319.285
318.848
318.411
317.974
317.536
317.096
316.657
322.783
322.348
321.913
321.478
321.043
320.608
320.173
319.739
319.304
318.87
318.435
318
317.564
317.127
316.683
322.784
322.351
321.918
321.485
321.053
320.62
320.188
319.755
319.323
318.891
318.459
318.027
317.595
317.162
316.731
322.785
322.354
321.923
321.493
321.062
320.632
320.202
319.772
319.342
318.912
318.483
318.054
317.625
317.196
316.762
322.786
322.357
321.929
321.5
321.072
320.644
320.216
319.788
319.361
318.933
318.507
318.081
317.656
317.234
316.818
322.787
322.36
321.934
321.508
321.082
320.656
320.23
319.804
319.379
318.954
318.53
318.107
317.686
317.266
316.848
322.788
322.364
321.939
321.515
321.091
320.667
320.243
319.82
319.397
318.975
318.553
318.132
317.713
317.297
316.89
322.789
322.367
321.944
321.522
321.1
320.679
320.257
319.836
319.415
318.995
318.575
318.157
317.739
317.323
316.909
322.79
322.37
321.95
321.53
321.11
320.69
320.27
319.851
319.433
319.014
318.597
318.18
317.764
317.347
316.927
322.791
322.373
321.955
321.537
321.119
320.701
320.284
319.866
319.45
319.033
318.618
318.203
317.788
317.375
316.963
322.792
322.376
321.96
321.544
321.128
320.712
320.296
319.881
319.466
319.052
318.638
318.225
317.813
317.401
316.985
322.793
322.379
321.965
321.551
321.137
320.723
320.309
319.896
319.483
319.07
318.659
318.248
317.838
317.429
317.024
322.794
322.382
321.97
321.558
321.146
320.734
320.322
319.91
319.499
319.088
318.678
318.269
317.861
317.455
317.047
322.795
322.385
321.975
321.564
321.154
320.744
320.334
319.925
319.515
319.106
318.697
318.29
317.884
317.481
317.086
322.796
322.388
321.979
321.571
321.163
320.755
320.347
319.939
319.531
319.123
318.715
318.309
317.904
317.502
317.104
322.797
322.391
321.984
321.578
321.172
320.766
320.359
319.953
319.546
319.14
318.733
318.327
317.923
317.521
317.126
322.798
322.394
321.989
321.585
321.181
320.776
320.372
319.967
319.562
319.156
318.751
318.345
317.939
317.535
317.135
322.799
322.397
321.994
321.592
321.19
320.787
320.384
319.981
319.578
319.173
318.768
318.362
317.954
317.547
317.14
322.8
322.4
321.999
321.599
321.199
320.798
320.397
319.996
319.594
319.191
318.786
318.38
317.97
317.557
317.144
322.801
322.403
322.004
321.606
321.208
320.809
320.41
320.011
319.611
319.21
318.806
318.399
317.988
317.569
317.143
322.802
322.406
322.01
321.613
321.217
320.821
320.424
320.027
319.629
319.23
318.828
318.423
318.011
317.585
317.129
322.803
322.409
322.015
321.621
321.226
320.832
320.438
320.043
319.648
319.251
318.853
318.451
318.043
317.621
317.161
289.02
288.545
288.109
287.687
287.272
286.861
286.453
286.045
285.638
285.232
284.826
284.42
284.014
283.609
283.203
289.049
288.578
288.138
287.713
287.295
286.881
286.469
286.059
285.651
285.242
284.834
284.427
284.019
283.611
283.204
289.028
288.59
288.157
287.733
287.314
286.898
286.485
286.073
285.662
285.252
284.842
284.433
284.023
283.614
283.205
289.023
288.597
288.171
287.749
287.331
286.914
286.5
286.086
285.674
285.262
284.85
284.439
284.028
283.617
283.206
289.023
288.603
288.183
287.764
287.346
286.929
286.514
286.099
285.685
285.271
284.858
284.445
284.032
283.619
283.206
289.021
288.609
288.194
287.777
287.36
286.943
286.527
286.111
285.696
285.281
284.866
284.451
284.036
283.622
283.207
289.026
288.618
288.205
287.79
287.373
286.957
286.54
286.123
285.706
285.29
284.873
284.457
284.041
283.624
283.208
289.039
288.631
288.219
287.804
287.387
286.97
286.552
286.134
285.717
285.299
284.881
284.463
284.045
283.627
283.209
289.052
288.647
288.234
287.819
287.402
286.984
286.565
286.146
285.727
285.308
284.888
284.469
284.049
283.629
283.21
289.081
288.667
288.252
287.835
287.417
286.998
286.578
286.158
285.737
285.316
284.895
284.474
284.053
283.632
283.211
289.099
288.687
288.27
287.852
287.433
287.013
286.592
286.17
285.748
285.326
284.903
284.48
284.057
283.634
283.211
289.131
288.71
288.29
287.87
287.45
287.028
286.605
286.182
285.759
285.335
284.911
284.486
284.062
283.637
283.212
289.149
288.731
288.311
287.889
287.467
287.043
286.619
286.195
285.77
285.344
284.918
284.492
284.066
283.64
283.213
289.18
288.754
288.331
287.908
287.484
287.06
286.634
286.208
285.781
285.354
284.926
284.498
284.07
283.642
283.214
289.195
288.775
288.352
287.928
287.503
287.076
286.649
286.221
285.792
285.363
284.934
284.504
284.075
283.645
283.215
289.211
288.797
288.375
287.949
287.522
287.094
286.664
286.234
285.804
285.373
284.942
284.511
284.079
283.648
283.216
289.248
288.824
288.399
287.971
287.542
287.111
286.68
286.248
285.816
285.383
284.95
284.517
284.084
283.65
283.217
289.274
288.853
288.425
287.994
287.562
287.13
286.696
286.263
285.828
285.394
284.959
284.524
284.088
283.653
283.218
289.325
288.887
288.452
288.018
287.584
287.149
286.713
286.277
285.841
285.404
284.967
284.53
284.093
283.656
283.219
289.353
288.917
288.48
288.043
287.605
287.168
286.73
286.292
285.853
285.415
284.976
284.537
284.098
283.659
283.22
289.396
288.949
288.507
288.067
287.627
287.187
286.747
286.307
285.866
285.426
284.985
284.544
284.103
283.662
283.221
289.42
288.977
288.533
288.091
287.648
287.206
286.764
286.322
285.879
285.436
284.994
284.551
284.108
283.665
283.222
289.457
289.005
288.559
288.114
287.67
287.226
286.781
286.337
285.892
285.447
285.003
284.558
284.113
283.668
283.223
289.475
289.029
288.584
288.138
287.691
287.245
286.798
286.352
285.905
285.458
285.011
284.565
284.118
283.671
283.224
289.492
289.054
288.608
288.161
287.713
287.264
286.816
286.367
285.918
285.469
285.02
284.572
284.123
283.674
283.225
289.531
289.083
288.635
288.185
287.735
287.284
286.833
286.382
285.931
285.48
285.029
284.578
284.128
283.677
283.226
289.558
289.113
288.662
288.209
287.756
287.303
286.85
286.397
285.944
285.491
285.038
284.585
284.132
283.679
283.226
289.608
289.146
288.69
288.234
287.778
287.323
286.868
286.413
285.957
285.502
285.047
284.592
284.137
283.682
283.227
289.635
289.176
288.717
288.258
287.8
287.342
286.885
286.428
285.971
285.513
285.056
284.599
284.142
283.685
283.228
289.676
289.207
288.743
288.282
287.821
287.362
286.902
286.443
285.983
285.524
285.065
284.606
284.147
283.688
283.229
289.699
289.234
288.769
288.305
287.842
287.381
286.919
286.458
285.996
285.535
285.074
284.613
284.152
283.691
283.23
289.732
289.26
288.793
288.327
287.863
287.399
286.936
286.472
286.009
285.546
285.083
284.62
284.157
283.694
283.231
289.748
289.282
288.815
288.349
287.883
287.418
286.952
286.487
286.022
285.557
285.092
284.627
284.162
283.697
283.232
289.764
289.304
288.838
288.371
287.903
287.436
286.969
286.502
286.034
285.568
285.101
284.634
284.167
283.7
283.233
289.798
289.33
288.862
288.393
287.923
287.454
286.985
286.516
286.047
285.578
285.109
284.641
284.172
283.703
283.234
289.821
289.356
288.885
288.414
287.943
287.472
287.001
286.53
286.06
285.589
285.118
284.647
284.177
283.706
283.235
289.864
289.384
288.91