/*--------------------------------*- C++ -*----------------------------------*\
| =========                 |                                                 |
| \\      /  F ield         | OpenFOAM: The Open Source CFD Toolbox           |
|  \\    /   O peration     | Version:  5.x                                   |
|   \\  /    A nd           | Web:      www.OpenFOAM.org                      |
|    \\/     M anipulation  |                                                 |
\*---------------------------------------------------------------------------*/
FoamFile
{
    version     2.0;
    format      ascii;
    class       volScalarField;
    location    "4.9";
    object      gradTy;
}
// * * * * * * * * * * * * * * * * * * * * * * * * * * * * * * * * * * * * * //

dimensions      [0 -1 0 1 0 0 0];

internalField   nonuniform List<scalar> 
6300
(
32273.9
32221.6
32169.3
32117.1
32065
32012.9
31960.9
31909.1
31857.4
31805.9
31754.5
31703.3
31652.4
31601.6
31551.1
-0.0140024
-0.0420709
-0.0703173
-0.0988226
-0.127597
-0.156555
-0.185498
-0.214102
-0.241925
-0.268439
-0.293098
-0.31545
-0.335276
-0.352753
-0.368574
-0.0232566
-0.0699049
-0.116908
-0.164415
-0.212471
-0.26096
-0.309563
-0.357733
-0.404699
-0.449504
-0.491118
-0.528624
-0.56148
-0.589837
-0.614821
-0.0323946
-0.0973924
-0.162979
-0.229437
-0.296888
-0.365222
-0.434027
-0.502534
-0.569594
-0.633716
-0.693198
-0.746396
-0.792135
-0.830253
-0.862147
-0.0413316
-0.124308
-0.208201
-0.293491
-0.380453
-0.469048
-0.558828
-0.648825
-0.737478
-0.822626
-0.901625
-0.971688
-1.03048
-1.07699
-1.11254
-0.049938
-0.150284
-0.252001
-0.355853
-0.462359
-0.571665
-0.683386
-0.796434
-0.908843
-1.01766
-1.11897
-1.20823
-1.28107
-1.33463
-1.36939
-0.0580738
-0.174891
-0.293671
-0.415568
-0.541477
-0.67188
-0.806633
-0.944698
-1.08382
-1.22022
-1.34837
-1.4612
-1.55094
-1.61108
-1.63955
-0.0655453
-0.197546
-0.33224
-0.471289
-0.616124
-0.767771
-0.926597
-1.09193
-1.26156
-1.43105
-1.59312
-1.73728
-1.85039
-1.91919
-1.93547
-0.0721096
-0.217516
-0.366464
-0.521239
-0.683977
-0.856505
-1.04008
-1.2349
-1.43945
-1.6493
-1.85577
-2.04436
-2.19408
-2.27969
-2.2796
-0.0774885
-0.233949
-0.394867
-0.563238
-0.742054
-0.934214
-1.14231
-1.36818
-1.61202
-1.87092
-2.13626
-2.39022
-2.60176
-2.72571
-2.71226
-0.0813856
-0.245927
-0.415824
-0.594803
-0.7868
-0.996003
-1.22679
-1.48347
-1.76954
-2.08603
-2.42806
-2.77835
-3.09686
-3.30894
-3.30688
-0.083514
-0.252552
-0.427708
-0.61336
-0.814354
-1.03622
-1.28539
-1.56937
-1.89661
-2.27555
-2.71147
-3.19812
-3.69822
-4.10618
-4.20316
-0.0836338
-0.253064
-0.429105
-0.616589
-0.821052
-1.04914
-1.30919
-1.612
-1.97193
-2.40797
-2.94403
-3.60429
-4.39163
-5.21445
-5.69384
-0.0815928
-0.246971
-0.419066
-0.602854
-0.80414
-1.03012
-1.29022
-1.59749
-1.97105
-2.44028
-3.05224
-3.88334
-5.04964
-6.66645
-8.46429
-0.0773614
-0.234166
-0.397349
-0.571636
-0.762557
-0.976994
-1.22407
-1.51667
-1.87443
-2.32973
-2.94122
-3.82721
-5.25745
-7.93788
-14.0079
31505
31463.3
31421.7
31380.4
31339.2
31298.2
31257.5
31216.9
31176.7
31136.7
31096.9
31057.5
31018.4
30979.7
30941.3
30903.3
30865.7
30828.4
30791.6
30755.2
30719.2
30683.6
30648.4
30613.6
30579.2
30545.2
30511.6
30478.4
30445.5
30413
30380.7
30348.9
30317.3
30286
30255
30224.3
30193.9
30163.7
30133.8
30104.2
30074.8
30045.7
30016.8
29988.2
29959.9
29931.8
29903.9
29876.3
29849
29821.9
29795
29768.4
29742
29715.8
29689.8
29664
29638.4
29612.9
29587.6
29562.5
29537.4
29512.5
29487.7
29462.9
29438.3
29413.7
29389.2
29364.7
29340.2
29315.8
29291.3
29266.9
29242.4
29217.9
29193.4
29168.8
29144.2
29119.5
29094.6
29069.7
29044.7
29019.6
28994.3
28968.9
28943.4
28917.7
28891.8
28865.8
28839.6
28813.2
-0.382712
-0.396426
-0.412148
-0.431001
-0.453918
-0.481476
-0.513771
-0.550366
-0.590332
-0.632366
-0.674969
-0.716636
-0.756026
-0.792064
-0.823973
-0.851234
-0.873516
-0.890598
-0.902322
-0.90859
-0.909401
-0.904891
-0.895371
-0.881332
-0.863413
-0.842359
-0.81896
-0.79402
-0.768324
-0.742631
-0.717648
-0.694008
-0.672228
-0.652673
-0.635539
-0.620868
-0.608584
-0.598543
-0.590583
-0.584534
-0.580206
-0.577344
-0.575575
-0.574381
-0.573096
-0.57096
-0.567198
-0.561115
-0.552187
-0.540108
-0.524808
-0.506429
-0.485271
-0.461738
-0.436292
-0.409416
-0.381596
-0.353289
-0.324901
-0.29675
-0.269039
-0.241845
-0.215135
-0.188801
-0.162711
-0.136752
-0.11086
-0.0850163
-0.0592295
-0.033503
-0.00781565
0.0178792
0.0436345
0.0694771
0.0953788
0.121244
0.146918
0.17222
0.196971
0.221018
0.244234
0.266487
0.287605
0.307335
0.325326
0.341135
0.35427
0.36424
0.37062
0.373095
-0.636654
-0.65773
-0.68218
-0.71215
-0.749457
-0.795256
-0.849789
-0.912273
-0.98097
-1.05343
-1.12684
-1.19844
-1.26582
-1.32715
-1.38118
-1.42716
-1.46467
-1.49341
-1.51311
-1.52357
-1.52472
-1.51671
-1.50008
-1.47567
-1.44463
-1.40828
-1.36801
-1.3252
-1.28117
-1.23722
-1.19458
-1.15437
-1.11749
-1.08459
-1.05597
-1.03164
-1.0114
-0.994926
-0.981933
-0.97216
-0.965361
-0.961188
-0.959073
-0.958141
-0.957211
-0.954883
-0.949714
-0.940412
-0.926014
-0.905991
-0.880266
-0.849152
-0.813239
-0.773276
-0.730085
-0.684514
-0.637406
-0.589573
-0.541744
-0.494492
-0.448172
-0.402892
-0.358534
-0.314842
-0.271522
-0.228349
-0.185214
-0.142119
-0.099124
-0.0562673
-0.0135158
0.0292394
0.0721368
0.115267
0.158603
0.201968
0.245061
0.287527
0.329035
0.369336
0.408254
0.445637
0.481256
0.514721
0.54543
0.572586
0.595275
0.612582
0.623718
0.628117
-0.888694
-0.91404
-0.944125
-0.982593
-1.03262
-1.09631
-1.17421
-1.26508
-1.36604
-1.47297
-1.58118
-1.68618
-1.7842
-1.87259
-1.94981
-2.01515
-2.06831
-2.10907
-2.13706
-2.15183
-2.15305
-2.14081
-2.11582
-2.07939
-2.03333
-1.9797
-1.92058
-1.85796
-1.79374
-1.72977
-1.66787
-1.60976
-1.55687
-1.51018
-1.47006
-1.43638
-1.40861
-1.38615
-1.36849
-1.35535
-1.34658
-1.34192
-1.34071
-1.34175
-1.34319
-1.34275
-1.33803
-1.3269
-1.3078
-1.27994
-1.24334
-1.19864
-1.1469
-1.08932
-1.02717
-0.961687
-0.894123
-0.825718
-0.757622
-0.69076
-0.625679
-0.562479
-0.500846
-0.440218
-0.379999
-0.319769
-0.259386
-0.198957
-0.138699
-0.0787614
-0.0191046
0.0405103
0.100417
0.160873
0.221894
0.28319
0.344212
0.404315
0.46294
0.519739
0.574579
0.627415
0.678095
0.726159
0.770731
0.810546
0.844105
0.86989
0.886595
0.893298
-1.13915
-1.1637
-1.19418
-1.23658
-1.29632
-1.37713
-1.48018
-1.60363
-1.74279
-1.89092
-2.04045
-2.18426
-2.31676
-2.43447
-2.53591
-2.62102
-2.69018
-2.7435
-2.78045
-2.79999
-2.80117
-2.78371
-2.74847
-2.69743
-2.63339
-2.55947
-2.47864
-2.39351
-2.30644
-2.21983
-2.1362
-2.05813
-1.98784
-1.9268
-1.87541
-1.83311
-1.79872
-1.77098
-1.74906
-1.73278
-1.72241
-1.71819
-1.71966
-1.72531
-1.73239
-1.7373
-1.73612
-1.7254
-1.7027
-1.66699
-1.61859
-1.5588
-1.48945
-1.41245
-1.32954
-1.24234
-1.15253
-1.06189
-0.972186
-0.884914
-0.800924
-0.720244
-0.64214
-0.565421
-0.488898
-0.411806
-0.334011
-0.255926
-0.178178
-0.101205
-0.0249759
0.0510283
0.127586
0.205352
0.284492
0.364519
0.444411
0.522966
0.599219
0.67272
0.743551
0.812071
0.878485
0.942419
1.00269
1.05733
1.10395
1.1401
1.16374
1.17342
-1.38903
-1.40474
-1.42699
-1.46554
-1.52961
-1.62586
-1.75673
-1.91949
-2.10655
-2.30682
-2.50792
-2.69857
-2.87057
-3.01971
-3.14551
-3.24981
-3.33482
-3.4015
-3.44887
-3.47457
-3.47609
-3.45222
-3.40387
-3.33415
-3.24765
-3.1492
-3.04291
-2.93184
-2.81849
-2.70559
-2.59653
-2.49529
-2.40552
-2.32952
-2.26767
-2.21847
-2.17926
-2.14744
-2.12153
-2.10172
-2.08943
-2.08627
-2.09264
-2.10682
-2.12477
-2.14064
-2.14799
-2.14115
-2.11637
-2.07236
-2.01025
-1.93274
-1.84307
-1.74412
-1.63809
-1.52679
-1.41217
-1.29672
-1.18328
-1.07437
-0.971424
-0.874323
-0.781458
-0.690359
-0.598637
-0.504873
-0.409067
-0.31242
-0.216553
-0.122584
-0.0305297
0.0607443
0.153013
0.24785
0.345811
0.446041
0.546535
0.644934
0.739463
0.829549
0.915857
0.999765
1.08245
1.16397
1.24274
1.31568
1.37886
1.42836
1.46097
1.47457
-1.64196
-1.63632
-1.63625
-1.65767
-1.71642
-1.82462
-1.98721
-2.20024
-2.45117
-2.72142
-2.9903
-3.23961
-3.45715
-3.63844
-3.78594
-3.90622
-4.00572
-4.08715
-4.14838
-4.18381
-4.18744
-4.15582
-4.08987
-3.99491
-3.87897
-3.75008
-3.61389
-3.47329
-3.32976
-3.18563
-3.04546
-2.91579
-2.80318
-2.7117
-2.64158
-2.58927
-2.54899
-2.51521
-2.48507
-2.45964
-2.44314
-2.44045
-2.45418
-2.48275
-2.51995
-2.55607
-2.58013
-2.5826
-2.55753
-2.50365
-2.42392
-2.32402
-2.20989
-2.08583
-1.95409
-1.81584
-1.67284
-1.52851
-1.38768
-1.25507
-1.13335
-1.02214
-0.918069
-0.816037
-0.711156
-0.600724
-0.485182
-0.367641
-0.252044
-0.141055
-0.0348092
0.0691775
0.174886
0.285995
0.404
0.52732
0.651811
0.772603
0.886238
0.991943
1.09175
1.18934
1.28821
1.38957
1.49131
1.58821
1.67356
1.74101
1.78568
1.80453
-1.90606
-1.85971
-1.81434
-1.79576
-1.83169
-1.94469
-2.14468
-2.426
-2.76756
-3.13757
-3.50043
-3.82593
-4.09547
-4.30534
-4.46506
-4.59204
-4.70211
-4.80135
-4.88448
-4.93826
-4.94897
-4.90826
-4.81706
-4.68522
-4.52831
-4.36082
-4.19056
-4.01828
-3.84123
-3.6593
-3.47855
-3.31104
-3.16971
-3.0624
-2.98913
-2.94201
-2.90866
-2.87698
-2.8411
-2.80397
-2.77621
-2.77024
-2.79361
-2.84551
-2.91594
-2.98812
-3.04261
-3.06293
-3.03945
-2.97139
-2.86592
-2.73506
-2.59026
-2.43786
-2.27873
-2.111
-1.93472
-1.75454
-1.57957
-1.41939
-1.27946
-1.15901
-1.05108
-0.945166
-0.83103
-0.703305
-0.563563
-0.419462
-0.280311
-0.152121
-0.0352699
0.0756869
0.189527
0.314738
0.455046
0.607411
0.762891
0.911045
1.04488
1.16328
1.27124
1.3775
1.49076
1.61502
1.7472
1.8777
1.99436
2.08678
2.14785
2.17372
-2.19812
-2.08137
-1.95349
-1.85486
-1.83541
-1.9388
-2.1843
-2.56422
-3.04211
-3.56317
-4.06345
-4.49191
-4.81873
-5.04345
-5.19028
-5.30111
-5.41295
-5.53758
-5.66168
-5.75354
-5.78328
-5.73215
-5.60144
-5.41032
-5.19152
-4.97416
-4.76871
-4.56872
-4.35828
-4.12979
-3.8911
-3.66709
-3.48571
-3.36254
-3.29745
-3.27336
-3.26433
-3.24322
-3.19732
-3.13318
-3.07628
-3.05615
-3.0903
-3.17995
-3.30775
-3.44403
-3.55262
-3.60471
-3.58393
-3.49139
-3.34283
-3.16457
-2.98
-2.79798
-2.6142
-2.41693
-2.20064
-1.97153
-1.74864
-1.55307
-1.39605
-1.27641
-1.17975
-1.08472
-0.969078
-0.821824
-0.646878
-0.462848
-0.291516
-0.145615
-0.0260233
0.0792398
0.188962
0.322882
0.489837
0.684093
0.885555
1.0711
1.22673
1.35056
1.45411
1.55646
1.67835
1.82985
2.00629
2.18786
2.35077
2.47835
2.56132
2.59652
-2.55128
-2.31866
-2.05014
-1.79951
-1.66175
-1.72766
-2.02961
-2.56053
-3.2536
-4.01778
-4.7289
-5.30324
-5.68796
-5.89265
-5.9662
-6.00755
-6.10415
-6.27331
-6.48395
-6.65694
-6.73268
-6.66923
-6.47138
-6.17382
-5.85111
-5.56882
-5.33741
-5.13259
-4.89969
-4.61331
-4.28082
-3.96005
-3.71616
-3.57731
-3.54493
-3.58123
-3.63561
-3.64334
-3.57799
-3.45011
-3.32156
-3.26205
-3.30519
-3.45759
-3.68544
-3.93791
-4.14213
-4.24953
-4.22983
-4.09017
-3.86066
-3.60126
-3.3642
-3.15877
-2.96726
-2.7484
-2.48323
-2.17777
-1.87658
-1.62947
-1.45706
-1.35902
-1.30437
-1.25227
-1.151
-0.978591
-0.741671
-0.486381
-0.26457
-0.099732
0.00530896
0.0777987
0.15495
0.284828
0.486658
0.751707
1.0324
1.27546
1.45555
1.56819
1.63981
1.70834
1.82432
2.0098
2.25893
2.52578
2.75892
2.93496
3.04431
3.09264
-3.02844
-2.60743
-2.121
-1.58174
-1.19509
-1.17693
-1.54555
-2.32364
-3.36297
-4.5491
-5.59166
-6.38799
-6.81684
-6.93114
-6.78897
-6.63488
-6.69136
-6.94979
-7.36094
-7.70092
-7.88306
-7.80044
-7.48552
-6.97417
-6.45315
-6.09086
-5.86846
-5.73754
-5.51876
-5.16391
-4.65438
-4.14298
-3.79609
-3.63948
-3.69424
-3.86378
-4.07479
-4.14946
-4.04944
-3.76879
-3.46819
-3.3209
-3.3635
-3.62738
-4.02845
-4.50203
-4.87181
-5.07815
-5.04924
-4.81907
-4.42226
-4.00654
-3.70358
-3.50026
-3.36041
-3.14725
-2.82453
-2.37851
-1.92733
-1.59893
-1.41162
-1.37979
-1.42593
-1.49122
-1.43593
-1.2288
-0.863432
-0.462198
-0.156058
0.0317865
0.0830432
0.0691949
0.0445833
0.142766
0.392072
0.796453
1.23313
1.57019
1.7812
1.84457
1.82969
1.79158
1.86997
2.09784
2.48585
2.91204
3.24908
3.48734
3.61491
3.6881
-3.74749
-2.99067
-2.26837
-1.14501
-0.198972
-0.0707821
-0.473602
-1.71245
-3.26299
-5.28931
-6.81125
-8.00431
-8.40123
-8.34163
-7.63176
-6.96196
-6.99085
-7.40954
-8.34371
-8.97553
-9.41818
-9.26973
-8.78624
-7.79224
-6.83053
-6.41545
-6.27187
-6.47315
-6.33799
-5.94148
-5.03495
-4.09345
-3.60647
-3.40182
-3.68286
-4.09123
-4.71496
-4.91187
-4.78575
-4.12101
-3.39889
-3.11121
-3.10808
-3.6045
-4.27199
-5.22055
-5.84175
-6.25046
-6.16337
-5.79283
-5.01595
-4.25426
-3.90427
-3.75511
-3.86384
-3.70857
-3.34804
-2.59126
-1.8058
-1.36969
-1.14669
-1.29264
-1.52416
-1.90802
-1.94363
-1.71088
-1.04076
-0.304901
0.119091
0.35638
0.250984
0.0726411
-0.24597
-0.220162
0.0710212
0.791672
1.57437
2.04363
2.31676
2.23098
2.05045
1.70461
1.69802
1.95298
2.65563
3.42455
3.87952
4.1972
4.26195
4.4208
-4.96059
-3.32478
-2.99371
-0.452733
1.97537
1.80064
1.8028
-0.651884
-2.47736
-6.75534
-8.50389
-10.7665
-10.6424
-10.6878
-8.4161
-6.28215
-6.72824
-7.12623
-9.76113
-10.5218
-11.8037
-11.2206
-10.8212
-8.56289
-6.41976
-6.3481
-6.1777
-7.69228
-7.53256
-7.45249
-5.4648
-3.38831
-3.0092
-2.46365
-3.48704
-4.00745
-5.96866
-6.13829
-6.29655
-4.55466
-2.70283
-2.49056
-2.13214
-3.33408
-4.10955
-6.40926
-7.11646
-8.13547
-7.68442
-7.35049
-5.58654
-3.90791
-3.81457
-3.63738
-4.7462
-4.56422
-4.44093
-2.84415
-1.18006
-0.83241
-0.349285
-1.08107
-1.40184
-2.8251
-2.83658
-2.82167
-1.31165
0.302503
0.664117
1.1755
0.525034
0.279148
-1.03143
-0.964191
-0.867492
0.698457
2.3678
2.80033
3.37003
2.7547
2.51015
1.12996
1.15024
1.16421
2.73066
4.38975
4.70827
5.27192
4.77416
5.38735
-7.57012
-1.77987
-6.90126
0.402176
7.8981
3.41781
7.61763
-0.496832
1.84046
-11.8632
-9.45571
-16.965
-12.6388
-16.37
-9.00137
-1.88633
-6.53414
-3.62096
-13.8766
-11.3169
-16.8738
-12.9064
-15.5319
-9.16681
-3.02511
-6.42197
-3.65614
-11.3214
-8.61143
-11.7094
-6.02148
-0.237873
-2.65049
0.734908
-4.01437
-1.84782
-9.80109
-7.37992
-10.5424
-5.14544
0.355359
-2.07916
1.09192
-3.67655
-1.75099
-9.88996
-7.94094
-12.1361
-9.03558
-10.9661
-6.03302
-1.27753
-3.84436
-1.66655
-7.48607
-5.33413
-7.65439
-3.19275
1.34258
-0.489031
2.19875
-1.46017
0.309251
-5.77391
-3.76638
-6.08419
-1.73136
2.71468
0.994568
3.66871
0.217585
2.01986
-3.79984
-1.74962
-3.92066
0.457319
4.9432
3.36041
6.13061
2.74537
4.60602
-1.4605
0.612387
-1.85933
2.67304
7.28611
5.18474
7.87571
3.6873
7.11331
-17.346
15.4781
-28.7002
0.979872
31.0664
-7.46481
31.1647
-15.3928
29.2569
-40.1719
3.87203
-40.2073
-3.03338
-38.0368
-9.22238
19.4471
-17.2288
18.8465
-36.4475
-0.424888
-35.6601
-5.09953
-33.1904
-9.45029
14.1038
-15.3715
13.8849
-29.8923
-1.32818
-28.6196
-6.71734
14.7137
-10.6425
15.6459
-14.5021
14.8829
-28.5743
-0.582634
-27.1157
-5.88732
14.8387
-9.74148
15.7472
-13.6601
15.0988
-27.8991
0.0805099
-26.6442
-3.14368
-24.4671
-6.22539
11.8953
-10.7081
11.8188
-21.7064
0.334291
-20.6353
-3.64903
13.032
-6.65509
13.8845
-9.65756
13.3265
-20.3747
1.53088
-18.9537
-2.28656
14.0048
-5.00391
14.981
-7.65591
14.735
-17.902
3.54249
-16.4054
0.0598569
16.2565
-2.34868
17.7541
-4.81885
18.1162
-15.7724
6.618
-14.9694
2.49856
19.8506
-1.24034
20.3851
-8.36493
13.5871
28784
28751.8
28719.4
28686.8
28654
28620.9
28587.7
28554.2
28520.6
28486.9
28453.1
28419.2
28385.2
28351.1
28317
0.371343
0.363628
0.350465
0.332482
0.310481
0.285324
0.257846
0.228785
0.19875
0.168201
0.137458
0.106722
0.0760905
0.0455871
0.015183
0.625223
0.611997
0.589384
0.558546
0.520933
0.478086
0.431472
0.382368
0.3318
0.280532
0.229079
0.177747
0.126675
0.0758727
0.0252668
0.889183
0.869766
0.836542
0.791393
0.736622
0.674618
0.607594
0.537421
0.46556
0.393057
0.320586
0.24852
0.176993
0.105965
0.0352808
1.16799
1.14127
1.09556
1.0338
0.959484
0.876118
0.786823
0.694132
0.599941
0.505534
0.411683
0.318755
0.226814
0.135715
0.0451736
1.4676
1.43176
1.37062
1.28875
1.19137
1.08352
0.969418
0.852325
0.734522
0.617443
0.501848
0.387995
0.275791
0.164908
0.0548726
1.7955
1.74761
1.66645
1.55921
1.43374
1.29713
1.15496
1.0112
0.86836
0.727856
0.590261
0.455578
0.323442
0.193254
0.0642806
2.16164
2.09689
1.98849
1.848
1.6873
1.51629
1.34207
1.16909
0.999833
0.835342
0.675749
0.520609
0.36914
0.220381
0.0732757
2.57976
2.49019
2.34291
2.15727
1.95138
1.73878
1.52792
1.32323
1.12649
0.937899
0.756767
0.581956
0.412123
0.245852
0.0817145
3.06967
2.94165
2.73609
2.48719
2.22258
1.95983
1.70774
1.46944
1.24498
1.03296
0.83144
0.638309
0.451533
0.269184
0.0894416
3.66236
3.47053
3.17256
2.83284
2.49228
2.17061
1.87401
1.6019
1.35103
1.11753
0.897695
0.688289
0.486503
0.289901
0.0963055
4.41749
4.10448
3.6499
3.17847
2.74289
2.35648
2.016
1.71325
1.43977
1.18842
0.953513
0.730633
0.51628
0.307605
0.102182
5.48256
4.88046
4.14455
3.4876
2.94395
2.49639
2.12038
1.79541
1.50642
1.24286
0.997302
0.764443
0.540371
0.322055
0.106999
7.25425
5.79032
4.56132
3.68357
3.04881
2.56479
2.17382
1.84164
1.54769
1.27931
1.02838
0.789458
0.558702
0.33324
0.110759
10.643
6.46458
4.62663
3.63647
3.00295
2.54026
2.1686
1.8497
1.56342
1.29832
1.04745
0.806295
0.571734
0.341441
0.113555
-0.0717295
-0.217056
-0.368089
-0.529008
-0.704619
-0.900767
-1.12497
-1.38749
-1.70338
-2.09657
-2.60911
-3.32462
-4.43545
-6.46218
-11.0514
-0.0651787
-0.197126
-0.333907
-0.478978
-0.636168
-0.809869
-1.00528
-1.22868
-1.48768
-1.79109
-2.14671
-2.54994
-2.9314
-2.91761
-0.694426
-0.0575269
-0.173845
-0.293979
-0.42055
-0.55627
-0.70391
-0.866147
-1.04509
-1.24106
-1.4493
-1.65135
-1.79061
-1.70167
-0.906904
1.9229
-0.0489978
-0.147917
-0.249589
-0.355785
-0.468114
-0.587829
-0.715401
-0.849631
-0.985795
-1.11175
-1.19979
-1.19012
-0.96161
-0.309927
0.85773
-0.0398277
-0.120079
-0.202067
-0.286775
-0.374849
-0.46631
-0.560027
-0.652768
-0.737494
-0.800401
-0.816208
-0.742061
-0.514797
-0.071557
0.555596
-0.030246
-0.091039
-0.152666
-0.215442
-0.279253
-0.343249
-0.405343
-0.461436
-0.504225
-0.521597
-0.495119
-0.400748
-0.217693
0.0390008
0.221484
-0.0204569
-0.0614237
-0.102474
-0.143399
-0.183546
-0.22153
-0.254848
-0.279336
-0.288526
-0.27308
-0.221103
-0.121218
0.0283799
0.20108
0.321713
-0.0106314
-0.0317515
-0.0523707
-0.071902
-0.0893468
-0.103066
-0.110502
-0.107871
-0.0898945
-0.0498115
0.0197328
0.123732
0.258458
0.399328
0.472381
-0.000904409
-0.00242572
-0.00302112
-0.00185277
0.00226469
0.0110321
0.0268415
0.0529238
0.0933976
0.153073
0.23671
0.347346
0.484303
0.644687
0.849709
0.00862448
0.0262602
0.0451077
0.0661526
0.0906517
0.120245
0.157052
0.203716
0.263355
0.33936
0.434984
0.5527
0.693906
0.859068
1.04066
0.0178869
0.0541094
0.0917167
0.131766
0.175508
0.224458
0.280426
0.345499
0.421946
0.512047
0.617945
0.741765
0.8869
1.06206
1.29419
0.0268401
0.0810024
0.136638
0.194822
0.256759
0.32381
0.397489
0.479393
0.57106
0.673782
0.788481
0.91605
1.05907
1.22551
1.42502
0.0354613
0.106879
0.179799
0.255283
0.33447
0.418575
0.508858
0.606521
0.71251
0.827214
0.950104
1.07963
1.21501
1.36601
1.59221
0.0437413
0.131718
0.221189
0.313186
0.408779
0.509065
0.615121
0.727885
0.847923
0.974982
1.10714
1.23918
1.36011
1.45435
1.55083
0.0516803
0.155527
0.260837
0.368606
0.479846
0.595569
0.716748
0.84422
0.978479
1.11923
1.26429
1.40649
1.52379
1.54115
1.15337
0.0592843
0.178326
0.29879
0.421633
0.547818
0.678305
0.81403
0.955867
1.10455
1.26051
1.42345
1.59114
1.75689
1.90935
2.08855
0.0665622
0.200145
0.335103
0.472356
0.612824
0.757429
0.907096
1.06279
1.22559
1.39698
1.57934
1.7772
1.99927
2.25905
2.54519
0.0735244
0.221016
0.369835
0.520864
0.674981
0.833064
0.996008
1.1648
1.34071
1.52584
1.7245
1.94651
2.21551
2.5905
3.23176
0.0801819
0.240974
0.403047
0.567247
0.73441
0.905354
1.08089
1.26189
1.44944
1.64535
1.85349
2.08326
2.35821
2.73712
3.36128
0.0865453
0.26005
0.434795
0.611594
0.791239
0.974484
1.16202
1.35448
1.55241
1.7564
1.96752
2.18869
2.42877
2.71351
3.10178
0.0926239
0.278275
0.465134
0.653988
0.845598
1.04067
1.23978
1.44331
1.6512
1.86254
2.07463
2.28106
2.46837
2.61809
2.78856
0.0984255
0.295672
0.494103
0.694492
0.897588
1.10407
1.3145
1.52914
1.74763
1.96819
2.18573
2.3868
2.53413
2.50834
1.83537
0.103956
0.312258
0.521729
0.733143
0.947256
1.16478
1.38635
1.61235
1.84266
2.07598
2.30833
2.52996
2.72014
2.84811
2.96402
0.109219
0.328043
0.548026
0.769947
0.994587
1.22273
1.45516
1.6926
1.93564
2.18449
2.43845
2.69507
2.94941
3.19637
3.43702
0.114218
0.343034
0.572998
0.804891
1.03952
1.27775
1.52054
1.76901
2.02463
2.28948
2.56677
2.86186
3.18388
3.54912
3.99793
0.118956
0.35724
0.596652
0.837964
1.08199
1.32965
1.58201
1.84051
2.10727
2.38587
2.6828
3.01006
3.38843
3.84394
4.34797
0.123439
0.370678
0.619007
0.86918
1.12199
1.37833
1.63929
1.90632
2.18172
2.46958
2.77784
3.12287
3.53952
4.10519
5.01164
0.127675
0.383371
0.640107
0.898595
1.15958
1.42387
1.69239
1.96637
2.24758
2.53918
2.84743
3.18606
3.58721
4.12994
5.02069
0.131676
0.395355
0.660014
0.926311
1.19491
1.4665
1.74177
2.02144
2.30629
2.59728
2.896
3.20597
3.53666
3.91317
4.37677
0.135456
0.406674
0.678808
0.952462
1.22822
1.50664
1.78815
2.07297
2.36077
2.65007
2.93685
3.21163
3.45436
3.63605
3.82876
0.139029
0.417372
0.696571
0.977184
1.25974
1.54468
1.8323
2.12249
2.41426
2.70466
2.98612
3.2397
3.41453
3.35141
2.42739
0.142407
0.427491
0.713379
1.0006
1.28964
1.58093
1.87474
2.17097
2.46877
2.76551
3.05484
3.32259
3.54
3.66477
3.75576
0.145604
0.437067
0.729292
1.02278
1.31802
1.61548
1.91554
2.21844
2.52405
2.83155
3.13865
3.4406
3.72987
4.00172
4.27462
0.14863
0.446131
0.744354
1.04379
1.34493
1.64829
1.95445
2.26408
2.57809
2.89792
3.2261
3.56757
3.93194
4.33809
4.83094
0.151494
0.454709
0.758604
1.06365
1.37033
1.67922
1.99102
2.30675
2.62816
2.95853
3.30442
3.67877
4.10511
4.61442
5.18078
0.154207
0.462831
0.772086
1.08241
1.39426
1.7082
2.02492
2.34554
2.67206
3.00844
3.36306
3.75403
4.22076
4.85129
5.86109
0.156781
0.470532
0.784857
1.10015
1.41681
1.7353
2.05619
2.38032
2.70917
3.04573
3.39656
3.77682
4.2228
4.82496
5.82413
0.159227
0.477853
0.796989
1.11697
1.43814
1.7608
2.08528
2.41189
2.741
3.07319
3.40974
3.75415
4.11648
4.52309
5.01118
0.161562
0.484837
0.808563
1.13303
1.45848
1.78511
2.11296
2.44179
2.77075
3.09768
3.41756
3.71921
3.97949
4.16483
4.35537
0.163796
0.491525
0.819656
1.14844
1.47806
1.80863
2.14003
2.47167
2.80198
3.12714
3.43814
3.71319
3.89462
3.80311
2.73923
0.165942
0.497952
0.830331
1.1633
1.49705
1.83165
2.167
2.50255
2.83685
3.16648
3.4838
3.77235
3.99937
4.1168
4.18884
0.168007
0.50414
0.840624
1.17768
1.5155
1.85423
2.19391
2.53437
2.87503
3.21444
3.54953
3.87442
4.18029
4.4622
4.74486
0.169997
0.510104
0.850553
1.19157
1.53338
1.87622
2.22035
2.56613
2.91413
3.26546
3.62242
3.98989
4.37799
4.80721
5.32584
0.171913
0.515849
0.86012
1.20496
1.55061
1.89738
2.24573
2.59642
2.95099
3.31264
3.68811
4.09117
4.54725
5.09032
5.69347
0.173758
0.521381
0.869327
1.21782
1.56711
1.91753
2.26955
2.6241
2.98301
3.35029
3.73475
4.15581
4.65624
5.33188
6.41704
0.175536
0.526708
0.878187
1.23018
1.5829
1.93662
2.29171
2.64882
3.00929
3.37608
3.75607
4.1655
4.6437
5.28923
6.36586
0.177249
0.531843
0.886723
1.24207
1.59806
1.95484
2.31254
2.67129
3.03124
3.39279
3.75707
4.12763
4.51506
4.94742
5.46291
0.178901
0.536797
0.894967
1.25357
1.61274
1.97249
2.33273
2.69299
3.05216
3.40767
3.75383
4.07822
4.35531
4.54807
4.74265
0.180495
0.54158
0.902942
1.26473
1.62706
1.98989
2.35297
2.71553
3.07569
3.42912
3.76581
4.06184
4.25421
4.14764
2.98187
0.18203
0.546192
0.91065
1.27558
1.64109
2.00719
2.37366
2.73982
3.10396
3.46224
3.80616
4.11764
4.36078
4.48293
4.55307
0.183501
0.550617
0.918067
1.28606
1.65477
2.0243
2.39465
2.76558
3.13638
3.50539
3.86913
4.2211
4.55146
4.85452
5.15631
0.1849
0.554828
0.925142
1.29609
1.66793
2.04092
2.41532
2.79151
3.17011
3.55225
3.94038
4.33974
4.76124
5.22715
5.79027
0.186215
0.558792
0.931808
1.30556
1.68037
2.05662
2.43483
2.81587
3.20144
3.59502
4.00393
4.44315
4.94033
5.53244
6.19031
0.187436
0.562471
0.937994
1.31434
1.69188
2.07104
2.45245
2.83716
3.22728
3.6272
4.04655
4.5065
5.05361
5.79225
6.97785
0.188551
0.56583
0.943641
1.32234
1.70232
2.08397
2.46785
2.85479
3.24638
3.64596
4.06109
4.50949
5.034
5.74189
6.92044
0.189548
0.568838
0.948702
1.32952
1.71164
2.09543
2.4812
2.86928
3.26002
3.654
4.05263
4.45984
4.88717
5.36488
5.93343
0.190419
0.571467
0.953136
1.33582
1.71988
2.10559
2.49304
2.88199
3.27146
3.6589
4.03832
4.3964
4.70545
4.92498
5.14771
0.191151
0.573682
0.956897
1.34123
1.72704
2.1146
2.50391
2.89441
3.28439
3.66942
4.03894
4.36721
4.58597
4.48303
3.23182
0.191729
0.575442
0.959918
1.34564
1.73305
2.12247
2.51402
2.90729
3.30081
3.69076
4.06833
4.41426
4.68995
4.83867
4.93577
0.192136
0.576692
0.962105
1.34893
1.73772
2.12895
2.52301
2.92006
3.31976
3.72077
4.11979
4.51028
4.8822
5.23033
5.58471
0.19235
0.577367
0.96334
1.35091
1.74075
2.13353
2.53002
2.93108
3.33788
3.75221
4.17728
4.61936
5.09109
5.6178
6.25862
0.19235
0.577398
0.963496
1.35137
1.74179
2.13561
2.53392
2.93818
3.35083
3.77625
4.22303
4.70803
5.26194
5.9262
6.67414
0.192114
0.576717
0.962451
1.3501
1.74052
2.13466
2.53375
2.93955
3.35498
3.78553
4.24234
4.749
5.35627
6.17669
7.4828
0.191624
0.575268
0.960105
1.34696
1.73671
2.13034
2.52901
2.9343
3.34869
3.77662
4.22715
4.72027
5.30269
6.09007
7.39329
0.190866
0.573009
0.956389
1.34185
1.73027
2.12258
2.51973
2.92282
3.33306
3.75209
4.1825
4.62971
5.10689
5.64543
6.27925
0.189828
0.569907
0.951255
1.33473
1.7212
2.11151
2.50642
2.90642
3.3114
3.71971
4.1263
4.5185
4.86855
5.13479
5.4145
0.188503
0.565941
0.944673
1.32557
1.70951
2.09731
2.48962
2.88665
3.28748
3.68859
4.08018
4.43675
4.6885
4.61495
3.35209
0.186885
0.561091
0.936614
1.31435
1.6952
2.08004
2.46963
2.8643
3.26343
3.66413
4.05847
4.42797
4.73439
4.92119
5.06842
0.184968
0.555344
0.927047
1.301
1.67817
2.05955
2.44616
2.83891
3.23834
3.64413
4.05411
4.46315
4.86343
5.25506
5.68565
0.182752
0.548689
0.915946
1.28546
1.65825
2.03548
2.41851
2.80895
3.20889
3.62124
4.0505
4.50458
4.99856
5.56201
6.25782
0.180239
0.541134
0.903304
1.26768
1.6353
2.00746
2.38576
2.77245
3.17089
3.58666
4.0297
4.51842
5.08557
5.7772
6.58615
0.177441
0.532709
0.889159
1.24767
1.60926
1.97522
2.34726
2.72785
3.12091
3.5332
3.97727
4.47795
5.08622
5.91105
7.20522
0.17438
0.523478
0.87361
1.22555
1.58023
1.93881
2.30287
2.67465
3.05764
3.45771
3.88561
4.3629
4.93656
5.71913
7.01753
0.17109
0.513541
0.856825
1.20157
1.54854
1.89866
2.25317
2.61371
2.98256
3.36294
3.75973
4.18106
4.64191
5.16915
5.76529
0.167617
0.50304
0.839047
1.17609
1.51469
1.85551
2.19934
2.54707
2.89951
3.25681
3.6169
3.97192
4.30123
4.57145
4.8713
0.164016
0.492144
0.820575
1.14955
1.47934
1.81032
2.14285
2.47721
2.81314
3.14878
3.47766
3.78076
4.00162
3.95329
2.88815
0.160351
0.481051
0.801749
1.12246
1.44322
1.76409
2.08514
2.40629
2.72702
3.04547
3.35639
3.64685
3.88898
4.04134
4.1767
0.156692
0.469971
0.782934
1.09537
1.40705
1.71779
2.0274
2.33571
2.64253
2.94742
3.24938
3.54662
3.83872
4.14132
4.54284
0.153109
0.459121
0.764506
1.06882
1.37158
1.67232
1.97061
2.26622
2.5594
2.85143
3.14571
3.45007
3.78125
4.17269
4.67993
0.149673
0.448718
0.74684
1.04337
1.33755
1.62859
1.91572
2.19846
2.47711
2.7539
3.03509
3.33497
3.68199
4.12373
4.70706
0.14645
0.438966
0.730301
1.01956
1.30573
1.58761
1.86393
2.13357
2.39615
2.65334
2.91154
3.18722
3.51701
3.97654
4.71474
0.143495
0.430042
0.715214
0.997939
1.27691
1.55052
1.81681
2.07363
2.31897
2.5521
2.77589
3.002
3.26197
3.63594
4.35671
0.14085
0.42208
0.701841
0.97894
1.25185
1.51853
1.77631
2.02168
2.25031
2.45737
2.63869
2.79334
2.92781
3.05458
3.12356
0.138533
0.415147
0.69033
0.962868
1.23112
1.49276
1.74446
1.98138
2.19664
2.38055
2.52007
2.59878
2.59904
2.51345
2.42379
0.136532
0.409212
0.680664
0.949787
1.215
1.47392
1.72288
1.95615
2.16475
2.33458
2.44371
2.45877
2.32992
1.97522
1.17534
0.134798
0.404136
0.672625
0.939433
1.20326
1.46201
1.71221
1.94806
2.1598
2.33079
2.43272
2.41878
2.21768
1.74619
1.00386
0.133245
0.399653
0.665758
0.931154
1.19507
1.45605
1.71151
1.95675
2.18318
2.37496
2.50225
2.50885
2.29324
1.70529
0.722769
0.131749
0.395382
0.659389
0.923914
1.1889
1.45394
1.71794
1.9785
2.23064
2.46394
2.65565
2.75331
2.62739
1.93844
-0.225161
0.130161
0.390853
0.652663
0.916354
1.18271
1.45257
1.72675
2.0061
2.29123
2.58185
2.87443
3.15308
3.35255
3.19564
1.43803
0.128315
0.385549
0.644633
0.906941
1.1741
1.44817
1.73199
2.02972
2.34803
2.69846
3.10296
3.60793
4.32512
5.56421
8.30452
8.13591
5.25121
3.99671
3.29616
2.81689
2.44068
2.11905
1.82935
1.55978
1.30359
1.05662
0.816097
0.580034
0.346907
0.115455
0.794553
2.73129
2.95974
2.8058
2.56483
2.30673
2.04878
1.79502
1.54596
1.30115
1.05991
0.821513
0.585282
0.35057
0.116757
-0.976238
1.39777
2.18828
2.37591
2.32467
2.17271
1.97563
1.75744
1.52921
1.29625
1.06122
0.825429
0.589478
0.353609
0.117854
0.0605881
1.16392
1.83546
2.11192
2.15451
2.07005
1.91716
1.72688
1.51575
1.29281
1.06308
0.829458
0.593623
0.356571
0.118917
0.415386
1.22993
1.757
2.0104
2.07264
2.01494
1.88469
1.71081
1.51053
1.29408
1.06765
0.835033
0.598618
0.359954
0.120107
0.801576
1.49561
1.86862
2.0417
2.0741
2.01025
1.88254
1.71311
1.51654
1.3023
1.07653
0.843257
0.605182
0.364163
0.121555
1.83923
1.98427
2.11913
2.17078
2.14246
2.04994
1.90939
1.73428
1.53486
1.31855
1.09063
0.854829
0.6138
0.36948
0.123352
2.45732
2.48008
2.42746
2.35547
2.25548
2.12301
1.96025
1.77236
1.56493
1.34289
1.11023
0.870048
0.624715
0.376061
0.125552
3.59919
3.02831
2.74932
2.55971
2.39112
2.21713
2.0286
1.82405
1.60518
1.37463
1.13508
0.888864
0.63795
0.383937
0.128168
3.9629
3.37391
3.0092
2.74943
2.53059
2.3214
2.10809
1.88573
1.65358
1.41266
1.16457
0.910967
0.653353
0.393041
0.131182
4.06613
3.56386
3.19627
2.91082
2.6634
2.42857
2.1939
1.95424
1.7081
1.4557
1.19793
0.935879
0.670646
0.403231
0.134548
4.09738
3.66036
3.32637
3.0459
2.78754
2.53567
2.28322
2.02729
1.76702
1.50251
1.23429
0.96303
0.689472
0.41431
0.138207
4.0547
3.6854
3.41938
3.16573
2.90722
2.64321
2.37498
2.1034
1.82894
1.55195
1.27278
0.991808
0.70943
0.426055
0.142084
3.76036
3.63881
3.50388
3.28904
3.03079
2.75371
2.46912
2.18155
1.89266
1.60295
1.31257
1.02159
0.730102
0.438225
0.146103
2.63353
3.60161
3.64393
3.44261
3.1675
2.86947
2.56535
2.26068
1.95699
1.65445
1.35281
1.05176
0.751067
0.450577
0.150183