/*--------------------------------*- C++ -*----------------------------------*\
| =========                 |                                                 |
| \\      /  F ield         | OpenFOAM: The Open Source CFD Toolbox           |
|  \\    /   O peration     | Version:  5.x                                   |
|   \\  /    A nd           | Web:      www.OpenFOAM.org                      |
|    \\/     M anipulation  |                                                 |
\*---------------------------------------------------------------------------*/
FoamFile
{
    version     2.0;
    format      ascii;
    class       volScalarField;
    location    "4.9";
    object      gradTx;
}
// * * * * * * * * * * * * * * * * * * * * * * * * * * * * * * * * * * * * * //

dimensions      [0 -1 0 1 0 0 0];

internalField   nonuniform List<scalar> 
6300
(
-52.2768
-52.2585
-52.2219
-52.1668
-52.0929
-52.0004
-51.8889
-51.7589
-51.6105
-51.4446
-51.2621
-51.0645
-50.8533
-50.63
-50.3959
-52.2955
-52.2773
-52.2408
-52.1858
-52.1122
-52.0196
-51.908
-51.7776
-51.6285
-51.4615
-51.2777
-51.0786
-50.8658
-50.6413
-50.4066
-52.3329
-52.3149
-52.2787
-52.224
-52.1507
-52.0583
-51.9465
-51.8153
-51.6648
-51.4958
-51.3092
-51.1067
-50.8906
-50.6633
-50.4271
-52.3887
-52.371
-52.3353
-52.2814
-52.2087
-52.1167
-52.0048
-51.8727
-51.7203
-51.5479
-51.3569
-51.149
-50.9271
-50.6947
-50.4554
-52.4627
-52.4454
-52.4107
-52.3579
-52.2865
-52.1954
-52.0838
-51.9509
-51.796
-51.6194
-51.4218
-51.2057
-50.9745
-50.7333
-50.488
-52.5543
-52.5378
-52.5045
-52.4536
-52.3843
-52.2951
-52.1846
-52.0513
-51.8941
-51.7121
-51.5059
-51.2778
-51.0324
-50.7767
-50.52
-52.6629
-52.6475
-52.6163
-52.5683
-52.5023
-52.4164
-52.3086
-52.1763
-52.0172
-51.8295
-51.6124
-51.3678
-51.1009
-50.8217
-50.5442
-52.7873
-52.7734
-52.7452
-52.7015
-52.6406
-52.5602
-52.4574
-52.3285
-52.1696
-51.9766
-51.7469
-51.4804
-51.1822
-50.8653
-50.5511
-52.926
-52.9142
-52.89
-52.8522
-52.7988
-52.7269
-52.6327
-52.5113
-52.3564
-52.161
-51.9186
-51.625
-51.2828
-50.9067
-50.5284
-53.0769
-53.0678
-53.0489
-53.019
-52.9758
-52.9163
-52.8358
-52.7279
-52.584
-52.393
-52.142
-51.8187
-51.4176
-50.9508
-50.4621
-53.2374
-53.2316
-53.2193
-53.1994
-53.1697
-53.1272
-53.0667
-52.981
-52.8591
-52.6853
-52.4379
-52.0905
-51.6183
-51.0172
-50.3393
-53.4042
-53.4022
-53.3978
-53.3899
-53.377
-53.3563
-53.3233
-53.2707
-53.1865
-53.0515
-52.8343
-52.4875
-51.9482
-51.1609
-50.1563
-53.5735
-53.5758
-53.5801
-53.586
-53.5926
-53.5982
-53.5999
-53.5922
-53.5653
-53.5001
-53.3605
-53.0773
-52.5264
-51.5222
-49.9392
-53.7409
-53.7477
-53.7613
-53.7819
-53.8096
-53.8444
-53.8861
-53.9334
-53.9825
-54.0236
-54.0306
-53.9351
-53.5583
-52.4631
-49.8358
-53.9021
-53.9132
-53.936
-53.9711
-54.0199
-54.0843
-54.1672
-54.273
-54.4081
-54.5813
-54.8036
-55.0747
-55.3095
-54.9368
-50.7616
-50.1726
-49.9616
-49.7424
-49.5137
-49.2735
-49.0196
-48.7493
-48.4605
-48.1509
-47.8192
-47.4647
-47.0874
-46.6882
-46.2685
-45.8305
-45.3764
-44.9089
-44.4307
-43.9449
-43.4543
-42.962
-42.4708
-41.9837
-41.5032
-41.0316
-40.5708
-40.1224
-39.6874
-39.2664
-38.8596
-38.4669
-38.0877
-37.7212
-37.3661
-37.0213
-36.6855
-36.3573
-36.0353
-35.7185
-35.4057
-35.0959
-34.7882
-34.4819
-34.1765
-33.8721
-33.5688
-33.2672
-32.9686
-32.6741
-32.3855
-32.1044
-31.8325
-31.5714
-31.3224
-31.0869
-30.8656
-30.6593
-30.4683
-30.2928
-30.1327
-29.988
-29.8583
-29.7434
-29.6431
-29.5571
-29.4854
-29.428
-29.3846
-29.3554
-29.3402
-29.3391
-29.352
-29.379
-29.42
-29.4752
-29.5444
-29.6276
-29.7247
-29.8354
-29.9593
-30.0961
-30.2451
-30.4059
-30.5777
-30.7595
-30.9504
-31.1488
-31.3533
-31.5619
-31.7727
-50.1836
-49.9738
-49.7566
-49.5307
-49.2938
-49.0434
-48.7766
-48.4907
-48.1832
-47.8525
-47.4978
-47.1193
-46.718
-46.2954
-45.854
-45.3961
-44.9245
-44.4422
-43.9521
-43.4571
-42.9606
-42.4654
-41.9745
-41.4907
-41.0163
-40.5534
-40.1034
-39.6674
-39.2461
-38.8396
-38.4477
-38.0697
-37.7047
-37.3515
-37.0086
-36.6747
-36.3483
-36.0281
-35.7128
-35.4015
-35.0929
-34.7861
-34.4805
-34.1753
-33.8705
-33.5662
-33.2631
-32.9624
-32.6656
-32.3745
-32.091
-31.8168
-31.5536
-31.303
-31.0662
-30.8439
-30.637
-30.4457
-30.2703
-30.1104
-29.966
-29.8367
-29.7222
-29.6221
-29.5363
-29.4647
-29.4073
-29.364
-29.3348
-29.3197
-29.3185
-29.3314
-29.3584
-29.3994
-29.4545
-29.5239
-29.6073
-29.7048
-29.816
-29.9405
-30.078
-30.2279
-30.3897
-30.5627
-30.7462
-30.939
-31.1398
-31.3469
-31.5585
-31.7724
-50.2045
-49.9969
-49.7839
-49.5638
-49.3341
-49.0914
-48.832
-48.5523
-48.2493
-47.9208
-47.5658
-47.1847
-46.7787
-46.3501
-45.9015
-45.4358
-44.9561
-44.4653
-43.9665
-43.4628
-42.9575
-42.454
-41.9554
-41.4649
-40.9848
-40.5175
-40.0644
-39.6266
-39.2047
-38.7988
-38.4086
-38.0332
-37.6716
-37.3221
-36.9832
-36.6532
-36.3305
-36.0137
-35.7017
-35.3933
-35.0872
-34.7826
-34.4783
-34.1736
-33.868
-33.5617
-33.2554
-32.9506
-32.6489
-32.3526
-32.0639
-31.785
-31.5177
-31.2637
-31.0241
-30.8
-30.5919
-30.4002
-30.2249
-30.0657
-29.9221
-29.7936
-29.6798
-29.5802
-29.4947
-29.4232
-29.3659
-29.3227
-29.2936
-29.2785
-29.2774
-29.2903
-29.3171
-29.3579
-29.413
-29.4825
-29.5665
-29.6647
-29.7768
-29.9026
-30.0415
-30.1931
-30.3569
-30.5324
-30.719
-30.9156
-31.1211
-31.3337
-31.5513
-31.7716
-50.2327
-50.0284
-49.8219
-49.6114
-49.3935
-49.1638
-48.917
-48.6481
-48.3526
-48.0276
-47.6719
-47.2861
-46.8724
-46.4339
-45.974
-45.4963
-45.004
-44.5003
-43.9883
-43.4711
-42.9523
-42.4358
-41.9252
-41.4241
-40.9354
-40.4614
-40.0037
-39.5632
-39.1405
-38.7357
-38.3483
-37.9772
-37.621
-37.2777
-36.9451
-36.6212
-36.3042
-35.9927
-35.6855
-35.3816
-35.0797
-34.7786
-34.4768
-34.1731
-33.8665
-33.5572
-33.2457
-32.934
-32.6243
-32.3196
-32.0228
-31.7363
-31.4626
-31.2032
-30.9596
-30.7327
-30.5231
-30.331
-30.1562
-29.9982
-29.8561
-29.7292
-29.6165
-29.5177
-29.4325
-29.3611
-29.3038
-29.2607
-29.2318
-29.2169
-29.2159
-29.2287
-29.2551
-29.2956
-29.3505
-29.4201
-29.5047
-29.604
-29.7178
-29.8454
-29.9864
-30.1403
-30.3068
-30.4857
-30.6768
-30.8792
-31.0918
-31.3128
-31.5399
-31.7703
-50.2639
-50.0634
-49.8662
-49.67
-49.4706
-49.2613
-49.0345
-48.7825
-48.4988
-48.1789
-47.8217
-47.4283
-47.0024
-46.5488
-46.0725
-45.578
-45.0688
-44.5478
-44.0178
-43.482
-42.9443
-42.4093
-41.8817
-41.3659
-40.8652
-40.3822
-39.9183
-39.4744
-39.0509
-38.6478
-38.2646
-37.9
-37.5521
-37.2179
-36.8946
-36.5794
-36.2702
-35.9656
-35.6648
-35.367
-35.0711
-34.7756
-34.4781
-34.1765
-33.8692
-33.5555
-33.2364
-32.9143
-32.5925
-32.2753
-31.9664
-31.6693
-31.3865
-31.12
-30.8709
-30.6403
-30.4288
-30.2364
-30.063
-29.9074
-29.7682
-29.6438
-29.533
-29.4352
-29.3501
-29.2785
-29.2209
-29.1778
-29.1493
-29.135
-29.1343
-29.1469
-29.1726
-29.2122
-29.2663
-29.3358
-29.4211
-29.5222
-29.6383
-29.7686
-29.9123
-30.0689
-30.2384
-30.4212
-30.6177
-30.8276
-31.0499
-31.2827
-31.5232
-31.768
-50.2912
-50.0944
-49.9094
-49.734
-49.5622
-49.3844
-49.1888
-48.9632
-48.6973
-48.3848
-48.0239
-47.6177
-47.1727
-46.6969
-46.1978
-45.6814
-45.151
-44.6086
-44.056
-43.4959
-42.9328
-42.3726
-41.8217
-41.286
-40.7699
-40.2757
-39.8045
-39.3566
-38.9321
-38.5314
-38.1542
-37.7992
-37.4634
-37.1427
-36.8327
-36.5292
-36.2297
-35.9331
-35.6397
-35.3496
-35.0622
-34.7753
-34.4853
-34.1883
-33.8809
-33.5616
-33.2314
-32.8939
-32.5542
-32.2187
-31.8929
-31.5814
-31.287
-31.0113
-30.7555
-30.5203
-30.3065
-30.1145
-29.9438
-29.7926
-29.6585
-29.5386
-29.4307
-29.3338
-29.2482
-29.1753
-29.1167
-29.0737
-29.0461
-29.0331
-29.0333
-29.0456
-29.0699
-29.1073
-29.1595
-29.2282
-29.3145
-29.4182
-29.5381
-29.6722
-29.8192
-29.9784
-30.1504
-30.3367
-30.5389
-30.7577
-30.9924
-31.241
-31.4999
-31.7646
-50.3042
-50.109
-49.9391
-49.7932
-49.6629
-49.5338
-49.3869
-49.2023
-48.9636
-48.6606
-48.2917
-47.8635
-47.3878
-46.8787
-46.3487
-45.8052
-45.2508
-44.6847
-44.1055
-43.5146
-42.9175
-42.3227
-41.7401
-41.1784
-40.6433
-40.1365
-39.6575
-39.2051
-38.7794
-38.3814
-38.0122
-37.6708
-37.3531
-37.0525
-36.7614
-36.4733
-36.185
-35.8963
-35.6099
-35.3284
-35.0526
-34.7794
-34.5028
-34.2151
-33.9098
-33.5834
-33.237
-32.8763
-32.51
-32.1479
-31.7988
-31.4687
-31.1602
-30.874
-30.6101
-30.3692
-30.1527
-29.9618
-29.7961
-29.6531
-29.5281
-29.4159
-29.3123
-29.2158
-29.1276
-29.051
-28.99
-28.9468
-28.9215
-28.9118
-28.9143
-28.9266
-28.9481
-28.9808
-29.0284
-29.0949
-29.1824
-29.2907
-29.4168
-29.557
-29.708
-29.869
-30.0414
-30.2289
-30.4356
-30.6642
-30.9147
-31.1842
-31.4677
-31.7593
-50.2871
-50.0876
-49.935
-49.8302
-49.7625
-49.7094
-49.6396
-49.52
-49.3227
-49.0317
-48.6457
-48.1779
-47.6513
-47.0914
-46.5192
-45.9451
-45.3681
-44.7798
-44.172
-43.5428
-42.8992
-42.2555
-41.6286
-41.0329
-40.4761
-39.9576
-39.4724
-39.0156
-38.5869
-38.1902
-37.8304
-37.5084
-37.2185
-36.9488
-36.6857
-36.4181
-36.1408
-35.8564
-35.573
-35.2993
-35.0392
-34.7885
-34.5361
-34.2673
-33.9689
-33.6338
-33.2633
-32.8667
-32.4595
-32.0584
-31.6774
-31.3245
-31.0011
-30.7044
-30.4315
-30.1828
-29.9617
-29.7724
-29.6157
-29.4874
-29.379
-29.2803
-29.1834
-29.0855
-28.9898
-28.9041
-28.837
-28.7939
-28.7742
-28.7724
-28.781
-28.794
-28.8098
-28.8324
-28.8699
-28.9308
-29.0202
-29.1369
-29.2749
-29.4256
-29.5823
-29.7426
-29.9101
-30.093
-30.3005
-30.5389
-30.8091
-31.1065
-31.4237
-31.7518
-50.2165
-49.9989
-49.8624
-49.814
-49.8417
-49.9094
-49.9645
-49.9498
-49.8174
-49.54
-49.1178
-48.5775
-47.9631
-47.3223
-46.6927
-46.0896
-45.502
-44.9035
-44.2698
-43.592
-42.8815
-42.1644
-41.4724
-40.8319
-40.254
-39.7312
-39.2464
-38.7859
-38.3486
-37.9462
-37.5943
-37.3002
-37.0548
-36.8358
-36.6169
-36.3768
-36.1069
-35.8153
-35.5223
-35.2506
-35.0121
-34.8003
-34.5931
-34.3619
-34.0809
-33.7354
-33.3268
-32.8725
-32.4001
-31.9397
-31.5152
-31.1379
-30.8036
-30.5002
-30.2179
-29.9564
-29.7249
-29.5356
-29.394
-29.293
-29.2157
-29.1418
-29.0557
-28.9517
-28.8373
-28.73
-28.6493
-28.6069
-28.6007
-28.6177
-28.641
-28.6568
-28.6612
-28.6622
-28.6772
-28.7255
-28.8181
-28.9523
-29.1141
-29.2853
-29.451
-29.6055
-29.7563
-29.9212
-30.1204
-30.3676
-30.6638
-31
-31.3634
-31.7415
-50.0581
-49.794
-49.6632
-49.6885
-49.8633
-50.1281
-50.3901
-50.5493
-50.5215
-50.2573
-49.7602
-49.0842
-48.3131
-47.5373
-46.8284
-46.2123
-45.6519
-45.0783
-44.4312
-43.6887
-42.8735
-42.0373
-41.2424
-40.541
-39.9527
-39.4503
-38.9858
-38.5231
-38.0602
-37.6296
-37.2752
-37.022
-36.853
-36.7229
-36.5787
-36.3783
-36.1046
-35.776
-35.441
-35.154
-34.9467
-34.8054
-34.6847
-34.5282
-34.2858
-33.9277
-33.4561
-32.9043
-32.3235
-31.7691
-31.2852
-30.8891
-30.5612
-30.2654
-29.9743
-29.6865
-29.4273
-29.2299
-29.1135
-29.0643
-29.047
-29.0207
-28.9534
-28.8327
-28.6743
-28.5175
-28.4063
-28.3675
-28.3935
-28.4538
-28.5112
-28.536
-28.5174
-28.4713
-28.4364
-28.456
-28.5558
-28.7275
-28.9395
-29.1528
-29.3352
-29.4735
-29.582
-29.6994
-29.8709
-30.1256
-30.4605
-30.8538
-31.2819
-31.7278
-49.7617
-49.3976
-49.2394
-49.3479
-49.7554
-50.3509
-50.9639
-51.4185
-51.5662
-51.3104
-50.6603
-49.7284
-48.6704
-47.6562
-46.8306
-46.2552
-45.8209
-45.3593
-44.7301
-43.8905
-42.8962
-41.8508
-40.8779
-40.0876
-39.528
-39.1148
-38.723
-38.2607
-37.7255
-37.2036
-36.8104
-36.6226
-36.5955
-36.6303
-36.6216
-36.4856
-36.1815
-35.7461
-35.2904
-34.9429
-34.7864
-34.7806
-34.8278
-34.8182
-34.6573
-34.2834
-33.7008
-32.9778
-32.2089
-31.4967
-30.9286
-30.5421
-30.2726
-30.0238
-29.7255
-29.3756
-29.0402
-28.8076
-28.736
-28.7896
-28.8911
-28.9586
-28.9276
-28.7677
-28.5089
-28.2389
-28.0587
-28.0344
-28.1367
-28.2939
-28.4279
-28.4773
-28.4128
-28.2641
-28.117
-28.0706
-28.1896
-28.4445
-28.7628
-29.0642
-29.2828
-29.3841
-29.3946
-29.3996
-29.5012
-29.7677
-30.1728
-30.6575
-31.1742
-31.7085
-49.2491
-48.7051
-48.4323
-48.5774
-49.3775
-50.5486
-51.7661
-52.7302
-53.192
-52.9317
-51.9668
-50.5545
-48.9649
-47.5038
-46.4729
-46.0952
-46.0298
-45.8818
-45.3325
-44.3153
-42.993
-41.5602
-40.2509
-39.3022
-38.8927
-38.7486
-38.5619
-38.1035
-37.3718
-36.5924
-36.0501
-35.992
-36.2488
-36.6007
-36.8479
-36.835
-36.4475
-35.7456
-34.9842
-34.4565
-34.4093
-34.6797
-35.0524
-35.3261
-35.3354
-34.9397
-34.1474
-33.1172
-32.0126
-31.0167
-30.3101
-30.0267
-29.9537
-29.8536
-29.5507
-29.0435
-28.5048
-28.1533
-28.178
-28.4455
-28.7841
-29.0379
-29.0871
-28.8447
-28.3594
-27.8305
-27.4863
-27.5186
-27.8007
-28.1669
-28.4663
-28.5821
-28.4291
-28.0543
-27.652
-27.4467
-27.6273
-28.0698
-28.6103
-29.0946
-29.3988
-29.4252
-29.2145
-28.9604
-28.8939
-29.2097
-29.7701
-30.4148
-31.041
-31.6681
-48.3564
-47.6226
-47.0246
-46.8646
-48.4664
-50.6804
-52.9339
-54.7658
-55.8584
-55.5683
-53.9183
-51.6363
-49.0751
-46.7328
-45.175
-45.4861
-46.358
-46.9827
-46.6093
-45.1799
-43.2493
-41.0925
-39.1049
-37.7407
-37.8758
-38.4444
-38.7922
-38.34
-37.0875
-35.6399
-34.5928
-34.9084
-35.7655
-36.722
-37.4489
-37.7241
-37.1662
-35.8311
-34.3414
-33.2786
-33.5747
-34.4317
-35.4197
-36.2149
-36.5965
-36.1671
-34.9366
-33.3637
-31.6598
-30.1198
-29.0823
-29.2081
-29.6736
-29.9753
-29.6696
-28.7566
-27.6994
-26.9569
-27.2701
-27.9986
-28.7987
-29.4115
-29.666
-29.271
-28.2723
-27.1554
-26.3715
-26.6426
-27.3432
-28.1356
-28.7684
-29.0736
-28.7642
-27.8837
-26.9028
-26.2666
-26.6872
-27.5536
-28.538
-29.3838
-29.9144
-29.807
-29.0965
-28.2505
-27.7354
-28.299
-29.2456
-30.1986
-30.9059
-31.5215
-46.4862
-46.3448
-44.9859
-42.6145
-46.6734
-50.7557
-54.7092
-57.8664
-60.5162
-60.1636
-56.7802
-53.1207
-48.8705
-44.8323
-41.1861
-44.0697
-47.0427
-49.5213
-49.4072
-46.7663
-43.8315
-40.3812
-37.0616
-34.0205
-36.235
-38.4582
-40.1749
-39.7293
-37.0841
-34.111
-31.1731
-33.0453
-35.1392
-37.1741
-38.7004
-39.8129
-39.0045
-36.1391
-33.0838
-30.1441
-31.9324
-33.9949
-36.0647
-37.699
-39.0256
-38.548
-36.2189
-33.7988
-31.0707
-28.4992
-26.179
-27.9004
-29.6291
-30.9716
-30.6629
-28.6772
-26.4407
-24.2403
-25.7639
-27.4486
-29.0825
-30.301
-31.1799
-30.5664
-28.3553
-26.0005
-23.7373
-25.1477
-26.7531
-28.3338
-29.5419
-30.4499
-29.9211
-27.8576
-25.6568
-23.5643
-25.105
-26.8671
-28.665
-30.1264
-31.3485
-31.0571
-29.1734
-27.0639
-25.0232
-26.8366
-28.7115
-30.3358
-30.9024
-30.8284
-40.4327
-46.82
-44.4062
-29.1054
-44.8476
-51.017
-57.6315
-61.6984
-69.498
-69.1237
-60.0404
-55.4561
-48.3611
-42.3679
-27.7946
-42.5254
-48.4396
-55.7937
-55.8444
-48.7764
-45.1567
-39.4822
-34.6174
-22.7326
-34.582
-39.2016
-44.6715
-44.2864
-37.5531
-32.532
-20.8269
-30.8632
-34.5982
-38.3587
-40.5482
-44.6682
-43.8048
-36.7207
-31.66
-20.2013
-29.8951
-33.5478
-37.3366
-39.6264
-44.0526
-43.5951
-37.632
-34.6773
-30.2558
-26.5167
-17.4559
-26.5817
-30.1404
-34.3454
-34.0707
-28.9586
-25.1298
-16.1606
-24.0257
-26.9712
-29.964
-31.6789
-34.8425
-34.1618
-28.6447
-24.7134
-15.8129
-23.3715
-26.1984
-29.068
-30.747
-33.8945
-33.2875
-28.0287
-24.2544
-15.6299
-23.2035
-26.1287
-29.2761
-31.2133
-34.9615
-34.5994
-29.5751
-25.7777
-16.7608
-25.2849
-28.5381
-31.9955
-31.8208
-27.2565
-32.0043
-32.2535
-32.4955
-32.7268
-32.9446
-33.1464
-33.3305
-33.4954
-33.6404
-33.7649
-33.8687
-33.9516
-34.0137
-34.0551
-34.0757
-32.0075
-32.2604
-32.5057
-32.74
-32.9601
-33.1638
-33.3492
-33.515
-33.6606
-33.7853
-33.8892
-33.9721
-34.0341
-34.0754
-34.096
-32.0139
-32.2744
-32.5266
-32.7668
-32.9917
-33.1991
-33.387
-33.5545
-33.701
-33.8262
-33.9302
-34.013
-34.0749
-34.116
-34.1365
-32.0238
-32.2962
-32.5592
-32.8084
-33.0406
-33.2533
-33.4449
-33.6147
-33.7624
-33.888
-33.992
-34.0745
-34.136
-34.1768
-34.1971
-32.0378
-32.327
-32.605
-32.8667
-33.1085
-33.3281
-33.5242
-33.6966
-33.8454
-33.9712
-34.0747
-34.1566
-34.2174
-34.2577
-34.2777
-32.0565
-32.3686
-32.6666
-32.9445
-33.1983
-33.4259
-33.6269
-33.8016
-33.951
-34.0763
-34.1787
-34.2593
-34.319
-34.3584
-34.378
-32.0812
-32.424
-32.748
-33.046
-33.3138
-33.55
-33.7554
-33.9315
-34.0803
-34.2039
-34.3042
-34.3826
-34.4405
-34.4786
-34.4975
-32.1142
-32.4977
-32.855
-33.1772
-33.4604
-33.7047
-33.9128
-34.0882
-34.2343
-34.3544
-34.451
-34.5262
-34.5814
-34.6176
-34.6356
-32.1592
-32.5971
-32.9969
-33.3471
-33.6455
-33.8953
-34.1026
-34.2737
-34.414
-34.528
-34.6189
-34.6893
-34.7407
-34.7745
-34.7912
-32.2221
-32.7345
-33.188
-33.5687
-33.8788
-34.1282
-34.3284
-34.4896
-34.6197
-34.7241
-34.807
-34.8708
-34.9175
-34.948
-34.9631
-32.3122
-32.9307
-33.4514
-33.8607
-34.1728
-34.4101
-34.593
-34.7365
-34.8505
-34.9415
-35.0136
-35.0692
-35.1099
-35.1366
-35.1498
-32.442
-33.2243
-33.8256
-34.249
-34.5411
-34.7464
-34.8971
-35.0126
-35.104
-35.1775
-35.2362
-35.282
-35.3158
-35.3382
-35.3493
-32.6289
-33.6983
-34.3774
-34.7677
-34.9948
-35.137
-35.2362
-35.3127
-35.3753
-35.4278
-35.4713
-35.5064
-35.5329
-35.5507
-35.5596
-32.9402
-34.5624
-35.2185
-35.4496
-35.5323
-35.57
-35.5981
-35.6265
-35.6566
-35.6866
-35.7146
-35.7389
-35.7582
-35.7716
-35.7784
-33.939
-36.3912
-36.4841
-36.2802
-36.1136
-36.012
-35.9594
-35.9388
-35.9377
-35.9471
-35.9612
-35.9761
-35.9891
-35.9986
-36.0036
-54.0399
-54.0548
-54.0852
-54.1324
-54.1987
-54.2875
-54.4043
-54.5579
-54.7633
-55.048
-55.4677
-56.1533
-57.4724
-60.6904
-71.0328
-54.1553
-54.1731
-54.2095
-54.2662
-54.3459
-54.453
-54.5944
-54.7809
-55.0312
-55.3785
-55.8873
-56.6947
-58.1207
-60.9732
-67.3245
-54.2585
-54.2788
-54.3201
-54.3843
-54.4744
-54.5951
-54.7533
-54.9599
-55.232
-55.5971
-56.1001
-56.8072
-57.7788
-58.8263
-58.0405
-54.3481
-54.3701
-54.4151
-54.4848
-54.582
-54.7113
-54.8787
-55.0934
-55.3681
-55.7204
-56.1717
-56.7366
-57.3843
-57.9527
-58.1889
-54.4226
-54.4459
-54.4933
-54.5664
-54.6678
-54.8011
-54.9714
-55.1852
-55.4504
-55.7755
-56.1654
-56.6087
-57.0453
-57.3102
-57.01
-54.4813
-54.5053
-54.554
-54.6288
-54.7317
-54.8656
-55.0341
-55.2413
-55.4911
-55.786
-56.1231
-56.4854
-56.8256
-57.0607
-57.1052
-54.5237
-54.5479
-54.597
-54.6719
-54.7743
-54.9062
-55.0699
-55.2676
-55.5005
-55.7679
-56.0647
-56.3775
-56.6788
-56.9442
-57.2271
-54.5496
-54.5737
-54.6223
-54.6963
-54.7968
-54.925
-55.0823
-55.2693
-55.4859
-55.7298
-55.9966
-56.2775
-56.557
-56.8162
-56.9647
-54.559
-54.5827
-54.6304
-54.7027
-54.8003
-54.9238
-55.0739
-55.2504
-55.4521
-55.6765
-55.9201
-56.1786
-56.4491
-56.7659
-57.3773
-54.5523
-54.5754
-54.6219
-54.6919
-54.786
-54.9045
-55.0473
-55.2139
-55.4024
-55.6104
-55.8347
-56.0712
-56.3092
-56.5117
-56.3993
-54.5299
-54.5523
-54.5972
-54.6648
-54.7552
-54.8685
-55.0044
-55.1618
-55.3391
-55.5335
-55.7423
-55.9628
-56.1938
-56.477
-57.1497
-54.4923
-54.5139
-54.5571
-54.6221
-54.7088
-54.8171
-54.9465
-55.0959
-55.2637
-55.4471
-55.6432
-55.8471
-56.0423
-56.1723
-55.8652
-54.4401
-54.4608
-54.5023
-54.5647
-54.6477
-54.7512
-54.8747
-55.0172
-55.1771
-55.3523
-55.5404
-55.7373
-55.936
-56.172
-56.8608
-54.3737
-54.3936
-54.4335
-54.4932
-54.5727
-54.6718
-54.7899
-54.9262
-55.0797
-55.2491
-55.4329
-55.6263
-55.8036
-55.858
-55.2379
-54.2939
-54.3129
-54.3511
-54.4083
-54.4845
-54.5793
-54.6924
-54.8232
-54.9712
-55.1363
-55.3202
-55.5265
-55.7567
-56.0131
-56.2726
-54.201
-54.2193
-54.2559
-54.3107
-54.3836
-54.4743
-54.5826
-54.7081
-54.8506
-55.0109
-55.1935
-55.4101
-55.6914
-56.1667
-57.4833
-54.0958
-54.1134
-54.1484
-54.2008
-54.2706
-54.3574
-54.4611
-54.5811
-54.7173
-54.8706
-55.0447
-55.2486
-55.4915
-55.7367
-55.3996
-53.9788
-53.9956
-54.0291
-54.0793
-54.146
-54.2291
-54.3282
-54.4427
-54.5721
-54.7161
-54.8766
-55.0601
-55.2899
-55.7117
-57.2823
-53.8504
-53.8664
-53.8985
-53.9465
-54.0104
-54.0899
-54.1846
-54.2938
-54.4164
-54.5507
-54.6941
-54.8395
-54.9548
-54.8898
-53.6623
-53.7112
-53.7265
-53.7572
-53.8031
-53.8643
-53.9404
-54.0311
-54.1356
-54.2525
-54.3794
-54.5117
-54.6395
-54.745
-54.8759
-55.7751
-53.5616
-53.5762
-53.6055
-53.6495
-53.708
-53.7809
-53.868
-53.9685
-54.0815
-54.2048
-54.3339
-54.4551
-54.5175
-54.329
-52.9506
-53.4021
-53.4161
-53.4441
-53.4861
-53.542
-53.6119
-53.6955
-53.7927
-53.9032
-54.0266
-54.163
-54.3114
-54.4641
-54.609
-54.7229
-53.2331
-53.2465
-53.2732
-53.3133
-53.3667
-53.4335
-53.5137
-53.6076
-53.7156
-53.8397
-53.985
-54.1648
-54.4162
-54.9113
-56.5704
-53.0552
-53.0679
-53.0933
-53.1315
-53.1823
-53.246
-53.3226
-53.4125
-53.5168
-53.6385
-53.7846
-53.9682
-54.199
-54.4058
-53.7428
-52.8688
-52.8808
-52.9049
-52.9411
-52.9894
-53.0497
-53.1222
-53.2072
-53.3057
-53.4207
-53.5596
-53.739
-53.9984
-54.5049
-56.2747
-52.6742
-52.6856
-52.7085
-52.7427
-52.7883
-52.8451
-52.9132
-52.9924
-53.0831
-53.1867
-53.3077
-53.454
-53.6263
-53.7274
-52.7416
-52.4719
-52.4827
-52.5043
-52.5367
-52.5796
-52.633
-52.6965
-52.7695
-52.8513
-52.9411
-53.0394
-53.1509
-53.3035
-53.7053
-55.8109
-52.2624
-52.2726
-52.293
-52.3235
-52.364
-52.4141
-52.4732
-52.5404
-52.6137
-52.6899
-52.7633
-52.8193
-52.8077
-52.5006
-50.4451
-52.0461
-52.0557
-52.075
-52.1038
-52.1419
-52.189
-52.2444
-52.3068
-52.3739
-52.4412
-52.5003
-52.5344
-52.517
-52.5107
-53.5426
-51.8232
-51.8324
-51.8506
-51.8778
-51.9138
-51.9583
-52.0107
-52.0699
-52.1338
-52.1985
-52.256
-52.2854
-52.2184
-51.8006
-49.7874
-51.5943
-51.6029
-51.6202
-51.6459
-51.6801
-51.7224
-51.7724
-51.8296
-51.893
-51.9612
-52.0324
-52.1032
-52.1633
-52.1988
-52.1972
-51.3596
-51.3677
-51.3841
-51.4085
-51.4409
-51.4812
-51.5292
-51.585
-51.6487
-51.722
-51.8102
-51.9284
-52.1253
-52.6232
-54.603
-51.1194
-51.1271
-51.1426
-51.1657
-51.1965
-51.2348
-51.2807
-51.3346
-51.3976
-51.4728
-51.5681
-51.6989
-51.8781
-52.019
-51.074
-50.874
-50.8813
-50.896
-50.9179
-50.947
-50.9833
-51.0268
-51.0779
-51.1378
-51.2098
-51.3026
-51.4357
-51.6577
-52.1692
-54.193
-50.6237
-50.6307
-50.6445
-50.6652
-50.6927
-50.7269
-50.7676
-50.8149
-50.8694
-50.9327
-51.0101
-51.1107
-51.236
-51.2698
-50.0046
-50.3688
-50.3754
-50.3885
-50.4081
-50.434
-50.466
-50.5038
-50.5469
-50.5946
-50.6463
-50.7024
-50.7685
-50.878
-51.2728
-53.6454
-50.1095
-50.1158
-50.1282
-50.1468
-50.1712
-50.2013
-50.2365
-50.2756
-50.3169
-50.3569
-50.3888
-50.3959
-50.3217
-49.9028
-47.4607
-49.8461
-49.852
-49.8638
-49.8815
-49.9047
-49.9332
-49.9663
-50.0028
-50.0401
-50.0734
-50.0932
-50.0799
-50.0045
-49.9384
-51.0488
-49.5786
-49.5843
-49.5956
-49.6125
-49.6347
-49.662
-49.6939
-49.7292
-49.7659
-49.7996
-49.8213
-49.807
-49.6809
-49.1573
-46.8356
-49.3074
-49.3128
-49.3237
-49.3399
-49.3613
-49.3878
-49.4191
-49.4546
-49.4935
-49.5344
-49.5752
-49.6116
-49.6332
-49.6251
-49.5786
-49.0325
-49.0378
-49.0482
-49.0638
-49.0845
-49.1104
-49.1414
-49.1776
-49.2196
-49.2695
-49.3329
-49.4266
-49.6059
-50.1201
-52.2875
-48.7542
-48.7592
-48.7692
-48.7843
-48.8044
-48.8295
-48.86
-48.8964
-48.9402
-48.9953
-49.0703
-49.182
-49.3461
-49.4672
-48.3861
-48.4724
-48.4772
-48.4869
-48.5014
-48.5208
-48.5451
-48.5746
-48.61
-48.6529
-48.7074
-48.7829
-48.901
-49.1161
-49.6496
-51.8462
-48.1874
-48.1921
-48.2013
-48.2153
-48.2338
-48.2571
-48.2851
-48.3182
-48.3574
-48.4051
-48.4667
-48.5524
-48.665
-48.6774
-47.2655
-47.8993
-47.9037
-47.9126
-47.926
-47.9437
-47.9658
-47.992
-48.0222
-48.056
-48.0931
-48.1342
-48.185
-48.2835
-48.6944
-51.2679
-47.6081
-47.6124
-47.621
-47.6338
-47.6507
-47.6717
-47.6963
-47.7237
-47.7523
-47.7786
-47.7954
-47.7845
-47.685
-47.21
-44.5269
-47.3141
-47.3182
-47.3264
-47.3387
-47.355
-47.3751
-47.3985
-47.4243
-47.45
-47.4708
-47.4763
-47.4453
-47.3471
-47.2593
-48.4511
-47.0172
-47.0212
-47.0291
-47.041
-47.0568
-47.0763
-47.0992
-47.1248
-47.151
-47.1737
-47.183
-47.1528
-47.0018
-46.4202
-43.8868
-46.7177
-46.7215
-46.7291
-46.7406
-46.7559
-46.7751
-46.7981
-46.8247
-46.8544
-46.8861
-46.9175
-46.9441
-46.9555
-46.9365
-46.878
-46.4155
-46.4191
-46.4265
-46.4376
-46.4525
-46.4714
-46.4945
-46.5225
-46.5564
-46.5986
-46.6558
-46.7458
-46.9303
-47.4804
-49.8281
-46.1108
-46.1143
-46.1213
-46.1319
-46.1463
-46.1647
-46.1876
-46.2161
-46.2524
-46.3009
-46.3714
-46.4819
-46.6511
-46.7763
-45.5993
-45.8037
-45.807
-45.8136
-45.8236
-45.8373
-45.8548
-45.8768
-45.9044
-45.9399
-45.988
-46.0593
-46.1772
-46.4025
-46.9764
-49.3618
-45.4944
-45.4974
-45.5036
-45.5129
-45.5256
-45.5418
-45.5621
-45.5872
-45.6185
-45.659
-45.7151
-45.7978
-45.9116
-45.9188
-44.3799
-45.1829
-45.1857
-45.1913
-45.1998
-45.2114
-45.2261
-45.2441
-45.2656
-45.2906
-45.3193
-45.3526
-45.3969
-45.4947
-45.9348
-48.7301
-44.8694
-44.872
-44.877
-44.8847
-44.895
-44.908
-44.9237
-44.9415
-44.9601
-44.9763
-44.9824
-44.9586
-44.8401
-44.3152
-41.3897
-44.5542
-44.5564
-44.5609
-44.5676
-44.5767
-44.5881
-44.6017
-44.6168
-44.6313
-44.6404
-44.6329
-44.5861
-44.4677
-44.3627
-45.6501
-44.2375
-44.2393
-44.2431
-44.2489
-44.2567
-44.2667
-44.2788
-44.2925
-44.3062
-44.3158
-44.3109
-44.2632
-44.0859
-43.4433
-40.6835
-43.9193
-43.9208
-43.9239
-43.9286
-43.9352
-43.9438
-43.9547
-43.9681
-43.9838
-44.0013
-44.0184
-44.0302
-44.0272
-43.9942
-43.9225
-43.6001
-43.6012
-43.6035
-43.6071
-43.6122
-43.6193
-43.629
-43.6421
-43.6603
-43.687
-43.7294
-43.8073
-43.9894
-44.5718
-47.1125
-43.28
-43.2807
-43.2821
-43.2844
-43.2879
-43.293
-43.3007
-43.3124
-43.331
-43.3617
-43.4154
-43.5121
-43.6736
-43.7893
-42.4945
-42.9594
-42.9596
-42.96
-42.9607
-42.9622
-42.9649
-42.9697
-42.9781
-42.9931
-43.0203
-43.0714
-43.172
-43.3894
-43.9864
-46.5517
-42.6386
-42.6382
-42.6375
-42.6365
-42.6357
-42.6353
-42.6361
-42.6392
-42.6467
-42.6622
-42.6928
-42.7506
-42.8415
-42.8164
-41.1162
-42.318
-42.3169
-42.315
-42.3122
-42.3087
-42.3048
-42.3009
-42.2973
-42.2947
-42.2935
-42.295
-42.3062
-42.3742
-42.8095
-45.7766
-41.9979
-41.9962
-41.993
-41.9881
-41.9819
-41.9743
-41.9654
-41.9549
-41.9417
-41.9227
-41.8899
-41.8224
-41.6518
-41.0443
-37.8613
-41.6789
-41.6765
-41.6719
-41.665
-41.6559
-41.6446
-41.6309
-41.6143
-41.5927
-41.5614
-41.5086
-41.4099
-41.2327
-41.0674
-42.375
-41.3613
-41.3583
-41.3523
-41.3432
-41.3313
-41.3164
-41.2985
-41.2771
-41.2506
-41.2149
-41.1586
-41.052
-40.8054
-40.0673
-37.1039
-41.0458
-41.042
-41.0345
-41.0234
-41.0086
-40.9902
-40.9685
-40.9434
-40.915
-40.8823
-40.8429
-40.7914
-40.7192
-40.6124
-40.4714
-40.7326
-40.7282
-40.7192
-40.7059
-40.6882
-40.6663
-40.6407
-40.6122
-40.5823
-40.5543
-40.5351
-40.5451
-40.6569
-41.181
-43.7431
-40.4225
-40.4172
-40.4068
-40.3912
-40.3705
-40.3449
-40.3149
-40.2819
-40.2485
-40.2198
-40.2064
-40.2281
-40.3081
-40.334
-38.9069
-40.1157
-40.1098
-40.0979
-40.0799
-40.056
-40.0263
-39.9913
-39.9521
-39.9113
-39.8745
-39.8526
-39.8707
-39.9969
-40.4958
-42.9712
-39.8129
-39.8063
-39.7929
-39.7726
-39.7455
-39.7113
-39.6704
-39.6233
-39.5716
-39.5185
-39.4703
-39.4381
-39.4269
-39.2847
-37.4545
-39.5146
-39.5072
-39.4924
-39.4699
-39.4396
-39.4009
-39.3538
-39.2978
-39.2328
-39.1588
-39.0761
-38.9908
-38.948
-39.2453
-41.9717
-39.2211
-39.2132
-39.1971
-39.1725
-39.1392
-39.0963
-39.0432
-38.9786
-38.9004
-38.8048
-38.683
-38.514
-38.2327
-37.5188
-34.3292
-38.933
-38.9245
-38.9073
-38.8811
-38.8452
-38.7987
-38.7406
-38.6688
-38.5803
-38.4688
-38.3218
-38.115
-37.8178
-37.5112
-38.53
-38.6506
-38.6417
-38.6237
-38.5961
-38.5583
-38.5091
-38.4473
-38.3707
-38.2761
-38.1572
-38.0012
-37.7788
-37.4093
-36.5827
-33.7654
-38.3741
-38.365
-38.3465
-38.3181
-38.279
-38.2282
-38.1643
-38.0853
-37.9888
-37.871
-37.7259
-37.5447
-37.3181
-37.0361
-36.7232
-38.1038
-38.0946
-38.0759
-38.0471
-38.0076
-37.9562
-37.8916
-37.8122
-37.7164
-37.6034
-37.4746
-37.3422
-37.2655
-37.5106
-39.4666
-37.8396
-37.8305
-37.812
-37.7835
-37.7443
-37.6933
-37.6291
-37.5504
-37.4562
-37.3465
-37.2247
-37.1009
-36.9894
-36.7963
-35.3906
-37.5816
-37.5727
-37.5547
-37.527
-37.4889
-37.4393
-37.3766
-37.2996
-37.2067
-37.0977
-36.9752
-36.851
-36.7699
-36.9238
-38.5225
-37.3294
-37.321
-37.3039
-37.2776
-37.2414
-37.1941
-37.1342
-37.0598
-36.9685
-36.8579
-36.7259
-36.5713
-36.3872
-36.0474
-34.4131
-37.0829
-37.0751
-37.0592
-37.0348
-37.0012
-36.9574
-36.9018
-36.8317
-36.7438
-36.6327
-36.491
-36.312
-36.1126
-36.0696
-37.5268
-36.8416
-36.8345
-36.8201
-36.7981
-36.768
-36.7289
-36.6792
-36.6162
-36.5354
-36.4285
-36.281
-36.0667
-35.7294
-35.0493
-32.7438
-36.605
-36.5986
-36.5859
-36.5667
-36.5408
-36.5075
-36.4658
-36.4133
-36.3451
-36.252
-36.1161
-35.9069
-35.5843
-35.1573
-35.2753
-36.3725
-36.367
-36.356
-36.3397
-36.3183
-36.2918
-36.2599
-36.2212
-36.1723
-36.1048
-36.001
-35.8258
-35.5117
-34.8862
-33.2688
-36.1436
-36.1388
-36.1295
-36.1161
-36.0992
-36.0798
-36.0587
-36.0365
-36.0125
-35.9825
-35.9342
-35.8411
-35.6554
-35.3033
-34.7662
-35.9177
-35.9135
-35.9055
-35.8945
-35.8816
-35.8686
-35.8581
-35.853
-35.8569
-35.8723
-35.8975
-35.9206
-35.9147
-35.8484
-35.8943
-35.6945
-35.6906
-35.6834
-35.6739
-35.6637
-35.6556
-35.6536
-35.6635
-35.6935
-35.755
-35.8609
-36.0203
-36.2159
-36.3148
-35.8719
-35.4736
-35.4698
-35.4626
-35.4534
-35.4441
-35.4382
-35.4408
-35.46
-35.5084
-35.6064
-35.7859
-36.0948
-36.5843
-37.1571
-36.7316
-35.2552
-35.2509
-35.243
-35.2326
-35.222
-35.2148
-35.2165
-35.2362
-35.289
-35.4008
-35.6198
-36.0438
-36.895
-38.692
-42.6111
-35.0394
-35.0343
-35.0247
-35.0117
-34.9973
-34.9849
-34.9795
-34.9896
-35.0286
-35.1204
-35.3099
-35.6964
-36.5489
-38.7525
-45.9045
-47.6252
-40.2298
-37.9164
-37.0072
-36.5856
-36.3716
-36.2612
-36.2073
-36.1854
-36.1813
-36.1862
-36.1948
-36.2036
-36.2105
-36.2142
-44.6169
-40.1895
-38.2435
-37.3294
-36.8694
-36.6262
-36.4963
-36.4293
-36.3983
-36.3877
-36.3879
-36.3931
-36.3996
-36.405
-36.4081
-37.7125
-38.4254
-37.8543
-37.3363
-37.0015
-36.8017
-36.6876
-36.6263
-36.597
-36.5863
-36.5859
-36.5903
-36.596
-36.6009
-36.6037
-37.2911
-37.5524
-37.4284
-37.2158
-37.0387
-36.9171
-36.8423
-36.8013
-36.7826
-36.7777
-36.7803
-36.7862
-36.7928
-36.798
-36.8009
-36.6921
-36.9464
-37.0643
-37.0704
-37.0364
-36.9995
-36.9736
-36.9608
-36.9587
-36.9635
-36.972
-36.9815
-36.9901
-36.9965
-36.9999
-35.896
-36.4344
-36.778
-36.9527
-37.0349
-37.0737
-37.0957
-37.1131
-37.1299
-37.1467
-37.1628
-37.1771
-37.1887
-37.1968
-37.201
-34.7537
-36.0572
-36.6092
-36.8992
-37.0626
-37.1591
-37.2212
-37.2658
-37.3011
-37.3302
-37.3545
-37.3743
-37.3894
-37.3995
-37.4047
-36.1578
-36.2012
-36.6226
-36.9333
-37.1356
-37.268
-37.3588
-37.4252
-37.4764
-37.5169
-37.5492
-37.5745
-37.5931
-37.6055
-37.6117
-34.0873
-36.0821
-36.7131
-37.0425
-37.2563
-37.4051