/*--------------------------------*- C++ -*----------------------------------*\
| =========                 |                                                 |
| \\      /  F ield         | OpenFOAM: The Open Source CFD Toolbox           |
|  \\    /   O peration     | Version:  5.x                                   |
|   \\  /    A nd           | Web:      www.OpenFOAM.org                      |
|    \\/     M anipulation  |                                                 |
\*---------------------------------------------------------------------------*/
FoamFile
{
    version     2.0;
    format      ascii;
    class       volScalarField;
    location    "4.9";
    object      T;
}
// * * * * * * * * * * * * * * * * * * * * * * * * * * * * * * * * * * * * * //

dimensions      [0 0 0 1 0 0 0];

internalField   nonuniform List<scalar> 
6300
(
322.739
322.216
321.693
321.171
320.65
320.13
319.61
319.092
318.575
318.06
317.546
317.034
316.525
316.017
315.512
322.738
322.216
321.693
321.171
320.649
320.129
319.609
319.09
318.573
318.058
317.544
317.032
316.522
316.015
315.51
322.738
322.215
321.692
321.169
320.648
320.126
319.606
319.088
318.57
318.054
317.54
317.028
316.518
316.01
315.505
322.738
322.214
321.691
321.167
320.645
320.123
319.603
319.083
318.565
318.049
317.534
317.022
316.511
316.003
315.497
322.738
322.213
321.689
321.165
320.642
320.119
319.598
319.077
318.559
318.042
317.526
317.013
316.502
315.994
315.488
322.737
322.212
321.686
321.162
320.637
320.114
319.591
319.07
318.55
318.032
317.516
317.002
316.491
315.982
315.475
322.737
322.21
321.684
321.158
320.632
320.108
319.584
319.062
318.54
318.021
317.504
316.989
316.477
315.967
315.46
322.736
322.208
321.681
321.153
320.627
320.1
319.575
319.051
318.529
318.008
317.489
316.973
316.46
315.949
315.442
322.735
322.206
321.677
321.148
320.62
320.092
319.565
319.04
318.515
317.993
317.472
316.954
316.44
315.929
315.421
322.735
322.204
321.673
321.143
320.613
320.083
319.555
319.027
318.5
317.975
317.452
316.932
316.416
315.904
315.397
322.734
322.201
321.669
321.137
320.605
320.074
319.543
319.012
318.483
317.955
317.429
316.906
316.388
315.874
315.367
322.733
322.199
321.665
321.131
320.597
320.063
319.53
318.997
318.465
317.933
317.404
316.877
316.354
315.838
315.331
322.732
322.196
321.661
321.125
320.589
320.053
319.517
318.981
318.445
317.91
317.375
316.842
316.314
315.792
315.283
322.731
322.194
321.656
321.119
320.581
320.042
319.504
318.965
318.425
317.885
317.345
316.804
316.266
315.733
315.217
322.731
322.191
321.652
321.113
320.573
320.032
319.491
318.949
318.406
317.861
317.314
316.765
316.213
315.659
315.114
315.051
314.634
314.219
313.805
313.393
312.984
312.576
312.171
311.769
311.369
310.972
310.578
310.187
309.8
309.416
309.036
308.659
308.287
307.919
307.555
307.195
306.839
306.487
306.139
305.795
305.455
305.119
304.786
304.458
304.132
303.81
303.491
303.175
302.862
302.552
302.245
301.941
301.639
301.34
301.044
300.75
300.459
300.17
299.884
299.601
299.32
299.041
298.765
298.492
298.221
297.952
297.686
297.422
297.159
296.899
296.641
296.385
296.13
295.877
295.626
295.375
295.126
294.877
294.63
294.383
294.137
293.892
293.647
293.402
293.158
292.913
292.669
292.424
292.179
291.934
291.688
291.441
291.194
290.946
290.697
290.446
290.195
289.942
289.688
289.433
289.176
288.917
288.657
288.394
288.13
315.049
314.631
314.216
313.802
313.39
312.981
312.573
312.168
311.765
311.365
310.967
310.573
310.182
309.794
309.41
309.03
308.654
308.281
307.913
307.549
307.189
306.833
306.481
306.133
305.789
305.45
305.114
304.781
304.452
304.127
303.805
303.486
303.171
302.858
302.548
302.241
301.937
301.635
301.336
301.04
300.746
300.455
300.167
299.88
299.597
299.316
299.038
298.762
298.488
298.217
297.949
297.682
297.418
297.156
296.897
296.639
296.383
296.128
295.875
295.624
295.373
295.124
294.876
294.629
294.382
294.136
293.891
293.646
293.402
293.157
292.913
292.669
292.424
292.179
291.934
291.689
291.442
291.195
290.947
290.698
290.448
290.197
289.944
289.69
289.435
289.178
288.919
288.659
288.397
288.133
315.044
314.626
314.21
313.796
313.384
312.974
312.566
312.16
311.757
311.356
310.958
310.563
310.172
309.784
309.399
309.019
308.642
308.269
307.901
307.537
307.177
306.821
306.469
306.121
305.778
305.438
305.103
304.771
304.442
304.117
303.796
303.477
303.162
302.849
302.54
302.233
301.929
301.627
301.328
301.032
300.739
300.447
300.159
299.873
299.589
299.308
299.03
298.754
298.481
298.21
297.942
297.676
297.412
297.15
296.891
296.633
296.377
296.123
295.871
295.62
295.37
295.121
294.873
294.626
294.38
294.135
293.89
293.645
293.401
293.157
292.913
292.669
292.425
292.18
291.936
291.69
291.444
291.197
290.95
290.701
290.451
290.2
289.948
289.694
289.439
289.183
288.924
288.664
288.402
288.138
315.036
314.618
314.202
313.788
313.375
312.965
312.556
312.149
311.745
311.343
310.945
310.549
310.157
309.768
309.383
309.001
308.624
308.251
307.883
307.518
307.158
306.802
306.451
306.104
305.761
305.421
305.086
304.755
304.427
304.102
303.781
303.463
303.148
302.836
302.527
302.22
301.917
301.615
301.317
301.021
300.727
300.436
300.147
299.861
299.578
299.297
299.019
298.743
298.47
298.199
297.931
297.665
297.402
297.141
296.882
296.625
296.37
296.116
295.864
295.614
295.364
295.116
294.869
294.622
294.377
294.132
293.887
293.643
293.4
293.156
292.913
292.669
292.426
292.182
291.937
291.693
291.447
291.201
290.954
290.706
290.456
290.206
289.954
289.701
289.446
289.189
288.931
288.671
288.409
288.146
315.026
314.608
314.191
313.777
313.364
312.952
312.543
312.135
311.73
311.327
310.927
310.53
310.136
309.746
309.36
308.978
308.601
308.227
307.858
307.494
307.133
306.778
306.427
306.08
305.737
305.399
305.064
304.733
304.406
304.083
303.762
303.445
303.13
302.819
302.51
302.204
301.901
301.6
301.301
301.005
300.712
300.421
300.132
299.846
299.562
299.281
299.003
298.728
298.455
298.184
297.917
297.652
297.389
297.128
296.87
296.614
296.36
296.107
295.856
295.606
295.357
295.11
294.863
294.617
294.372
294.128
293.885
293.641
293.398
293.155
292.913
292.67
292.427
292.184
291.94
291.696
291.451
291.205
290.959
290.712
290.463
290.213
289.962
289.709
289.455
289.199
288.941
288.681
288.42
288.156
315.013
314.595
314.178
313.763
313.349
312.937
312.526
312.117
311.71
311.306
310.904
310.505
310.11
309.719
309.332
308.949
308.571
308.197
307.827
307.462
307.102
306.747
306.396
306.05
305.708
305.37
305.037
304.707
304.381
304.058
303.738
303.422
303.108
302.798
302.489
302.184
301.881
301.58
301.282
300.986
300.693
300.402
300.113
299.827
299.543
299.262
298.984
298.708
298.436
298.166
297.899
297.634
297.372
297.113
296.855
296.6
296.347
296.095
295.845
295.596
295.348
295.102
294.856
294.611
294.367
294.124
293.881
293.638
293.396
293.154
292.912
292.67
292.428
292.186
291.943
291.7
291.456
291.211
290.966
290.719
290.471
290.222
289.972
289.72
289.466
289.211
288.953
288.694
288.433
288.169
314.998
314.58
314.163
313.747
313.333
312.92
312.507
312.097
311.687
311.28
310.876
310.476
310.079
309.686
309.297
308.913
308.534
308.159
307.789
307.424
307.064
306.709
306.359
306.013
305.672
305.336
305.003
304.675
304.35
304.028
303.71
303.395
303.082
302.772
302.465
302.16
301.857
301.557
301.259
300.963
300.67
300.379
300.09
299.804
299.52
299.239
298.96
298.685
298.412
298.143
297.876
297.613
297.352
297.094
296.837
296.583
296.331
296.081
295.832
295.584
295.338
295.092
294.847
294.604
294.361
294.118
293.876
293.635
293.394
293.153
292.912
292.671
292.43
292.189
291.947
291.705
291.462
291.218
290.974
290.728
290.481
290.233
289.983
289.732
289.48
289.225
288.968
288.71
288.449
288.185
314.98
314.562
314.146
313.73
313.315
312.901
312.487
312.073
311.661
311.251
310.844
310.44
310.041
309.646
309.256
308.871
308.49
308.115
307.744
307.379
307.018
306.664
306.314
305.97
305.63
305.295
304.964
304.637
304.314
303.994
303.678
303.364
303.052
302.743
302.437
302.132
301.83
301.53
301.232
300.937
300.644
300.353
300.064
299.777
299.493
299.211
298.932
298.657
298.384
298.116
297.85
297.588
297.328
297.071
296.816
296.564
296.313
296.064
295.817
295.571
295.326
295.081
294.838
294.595
294.353
294.112
293.871
293.631
293.391
293.151
292.912
292.672
292.432
292.192
291.951
291.71
291.469
291.227
290.983
290.739
290.493
290.246
289.997
289.747
289.496
289.242
288.987
288.729
288.468
288.205
314.96
314.543
314.127
313.711
313.296
312.881
312.465
312.048
311.632
311.218
310.806
310.399
309.997
309.6
309.208
308.822
308.44
308.063
307.692
307.325
306.965
306.611
306.262
305.919
305.582
305.249
304.92
304.594
304.273
303.955
303.641
303.329
303.019
302.711
302.405
302.101
301.799
301.499
301.202
300.907
300.614
300.323
300.034
299.747
299.462
299.179
298.899
298.623
298.352
298.083
297.819
297.558
297.3
297.045
296.792
296.541
296.293
296.046
295.8
295.556
295.312
295.069
294.826
294.585
294.344
294.104
293.865
293.627
293.388
293.15
292.911
292.673
292.434
292.195
291.956
291.717
291.477
291.237
290.995
290.751
290.507
290.261
290.013
289.765
289.515
289.263
289.008
288.752
288.492
288.229
314.936
314.521
314.106
313.693
313.278
312.862
312.443
312.022
311.6
311.18
310.763
310.351
309.945
309.545
309.152
308.765
308.382
308.004
307.631
307.264
306.903
306.549
306.202
305.862
305.526
305.196
304.869
304.546
304.227
303.912
303.6
303.29
302.983
302.676
302.371
302.067
301.764
301.465
301.168
300.874
300.582
300.292
300.002
299.714
299.427
299.142
298.861
298.585
298.313
298.046
297.783
297.524
297.268
297.015
296.764
296.515
296.269
296.025
295.782
295.54
295.298
295.056
294.814
294.573
294.333
294.095
293.858
293.622
293.385
293.149
292.911
292.673
292.436
292.198
291.961
291.724
291.487
291.248
291.008
290.766
290.522
290.277
290.031
289.784
289.536
289.286
289.034
288.778
288.52
288.257
314.909
314.496
314.086
313.675
313.263
312.846
312.424
311.997
311.567
311.137
310.712
310.293
309.883
309.482
309.089
308.701
308.318
307.938
307.562
307.192
306.83
306.477
306.133
305.796
305.465
305.137
304.813
304.492
304.175
303.863
303.555
303.25
302.945
302.64
302.334
302.029
301.726
301.426
301.13
300.838
300.548
300.258
299.968
299.678
299.388
299.1
298.817
298.538
298.267
298.002
297.742
297.486
297.233
296.982
296.733
296.486
296.243
296.002
295.763
295.523
295.283
295.042
294.8
294.56
294.321
294.084
293.85
293.617
293.383
293.148
292.911
292.674
292.437
292.201
291.966
291.732
291.498
291.262
291.024
290.783
290.539
290.295
290.05
289.805
289.56
289.313
289.064
288.81
288.553
288.291
314.876
314.468
314.064
313.661
313.254
312.838
312.412
311.976
311.533
311.089
310.651
310.223
309.808
309.407
309.017
308.632
308.248
307.865
307.484
307.11
306.745
306.393
306.052
305.722
305.397
305.074
304.752
304.431
304.117
303.808
303.507
303.208
302.907
302.603
302.297
301.989
301.683
301.382
301.087
300.799
300.513
300.225
299.935
299.641
299.346
299.052
298.764
298.483
298.212
297.949
297.695
297.444
297.194
296.945
296.697
296.453
296.213
295.977
295.744
295.508
295.269
295.028
294.785
294.543
294.305
294.071
293.841
293.613
293.382
293.149
292.913
292.675
292.436
292.201
291.969
291.74
291.511
291.28
291.044
290.803
290.559
290.313
290.068
289.826
289.586
289.344
289.099
288.848
288.592
288.331
314.834
314.436
314.04
313.653
313.259
312.845
312.414
311.963
311.502
311.032
310.576
310.133
309.715
309.315
308.936
308.562
308.178
307.789
307.395
307.013
306.642
306.292
305.957
305.64
305.328
305.009
304.687
304.362
304.048
303.744
303.454
303.168
302.873
302.572
302.26
301.947
301.632
301.328
301.035
300.756
300.48
300.196
299.906
299.606
299.302
298.996
298.7
298.413
298.144
297.886
297.642
297.401
297.155
296.907
296.655
296.412
296.176
295.95
295.727
295.496
295.26
295.016
294.77
294.521
294.282
294.05
293.829
293.611
293.385
293.155
292.916
292.676
292.432
292.196
291.967
291.748
291.529
291.303
291.07
290.827
290.58
290.329
290.084
289.844
289.613
289.382
289.141
288.894
288.638
288.379
314.777
314.402
314.004
313.652
313.294
312.874
312.448
311.962
311.484
310.954
310.481
310.008
309.596
309.193
308.848
308.507
308.114
307.723
307.288
306.899
306.509
306.169
305.836
305.551
305.269
304.947
304.628
304.277
303.966
303.659
303.397
303.14
302.847
302.554
302.227
301.909
301.563
301.259
300.961
300.708
300.459
300.175
299.892
299.574
299.264
298.924
298.621
298.32
298.058
297.802
297.583
297.366
297.118
296.872
296.602
296.361
296.124
295.921
295.72
295.491
295.262
295.006
294.757
294.487
294.248
294.014
293.815
293.619
293.396
293.173
292.923
292.68
292.416
292.182
291.952
291.754
291.559
291.336
291.111
290.858
290.609
290.335
290.091
289.849
289.64
289.432
289.193
288.954
288.687
288.439
314.683
314.401
313.902
313.661
313.417
312.913
312.567
311.953
311.539
310.794
310.386
309.794
309.462
308.988
308.756
308.524
308.047
307.717
307.117
306.786
306.304
306.034
305.646
305.457
305.268
304.88
304.614
304.136
303.876
303.51
303.334
303.163
302.82
302.586
302.18
301.91
301.436
301.18
300.824
300.653
300.487
300.154
299.928
299.532
299.267
298.798
298.541
298.171
297.963
297.666
297.521
297.376
297.078
296.873
296.506
296.305
296.023
295.887
295.754
295.486
295.304
294.987
294.776
294.406
294.207
293.929
293.795
293.665
293.405
293.228
292.921
292.716
292.356
292.161
291.889
291.757
291.628
291.37
291.193
290.882
290.673
290.3
290.096
289.807
289.666
289.527
289.245
289.052
288.712
288.521
287.838
287.517
287.193
286.867
286.539
286.208
285.876
285.542
285.206
284.869
284.531
284.191
283.852
283.511
283.17
287.841
287.519
287.196
286.869
286.541
286.21
285.877
285.543
285.207
284.87
284.531
284.192
283.852
283.511
283.171
287.846
287.524
287.2
286.874
286.545
286.214
285.881
285.546
285.21
284.872
284.533
284.194
283.853
283.512
283.171
287.853
287.532
287.207
286.88
286.551
286.22
285.886
285.551
285.214
284.875
284.536
284.196
283.855
283.513
283.171
287.863
287.542
287.217
286.89
286.56
286.227
285.893
285.557
285.219
284.88
284.54
284.198
283.857
283.514
283.171
287.877
287.554
287.229
286.901
286.57
286.237
285.902
285.565
285.226
284.886
284.544
284.202
283.859
283.516
283.172
287.893
287.57
287.244
286.915
286.583
286.249
285.912
285.574
285.234
284.892
284.55
284.206
283.862
283.517
283.173
287.913
287.589
287.263
286.932
286.599
286.263
285.925
285.585
285.243
284.9
284.556
284.211
283.866
283.52
283.173
287.936
287.612
287.284
286.952
286.617
286.279
285.939
285.597
285.254
284.909
284.563
284.217
283.869
283.522
283.174
287.964
287.639
287.309
286.975
286.638
286.298
285.955
285.611
285.266
284.919
284.571
284.223
283.874
283.524
283.175
287.997
287.671
287.339
287.002
286.662
286.319
285.973
285.627
285.279
284.93
284.58
284.229
283.878
283.527
283.176
288.037
287.709
287.373
287.032
286.688
286.341
285.993
285.643
285.293
284.941
284.589
284.237
283.884
283.53
283.177
288.086
287.753
287.412
287.066
286.716
286.366
286.014
285.661
285.308
284.953
284.599
284.244
283.889
283.533
283.178
288.147
287.806
287.456
287.102
286.747
286.391
286.035
285.679
285.323
284.966
284.609
284.252
283.894
283.537
283.179
288.231
287.869
287.503
287.139
286.777
286.417
286.057
285.698
285.338
284.979
284.62
284.26
283.9
283.54
283.18
322.73
322.189
321.649
321.108
320.566
320.024
319.48
318.936
318.389
317.84
317.288
316.731
316.165
315.582
314.951
322.729
322.188
321.646
321.103
320.56
320.017
319.471
318.925
318.376
317.824
317.268
316.706
316.134
315.544
314.915
322.729
322.186
321.643
321.1
320.555
320.01
319.464
318.915
318.364
317.811
317.252
316.689
316.116
315.533
314.94
322.728
322.185
321.641
321.096
320.551
320.005
319.457
318.907
318.355
317.8
317.241
316.676
316.106
315.529
314.947
322.728
322.184
321.639
321.094
320.548
320
319.452
318.901
318.348
317.792
317.232
316.669
316.1
315.528
314.954
322.728
322.183
321.638
321.092
320.545
319.997
319.448
318.896
318.343
317.787
317.227
316.664
316.097
315.528
314.956
322.727
322.182
321.636
321.09
320.543
319.995
319.445
318.893
318.34
317.783
317.224
316.662
316.097
315.528
314.958
322.727
322.182
321.636
321.089
320.542
319.993
319.443
318.892
318.338
317.782
317.223
316.662
316.098
315.531
314.962
322.727
322.182
321.636
321.089
320.542
319.993
319.443
318.891
318.338
317.782
317.225
316.664
316.101
315.535
314.966
322.727
322.182
321.636
321.089
320.542
319.994
319.444
318.893
318.34
317.785
317.227
316.668
316.106
315.542
314.976
322.727
322.182
321.636
321.09
320.543
319.995
319.446
318.895
318.342
317.788
317.232
316.673
316.113
315.549
314.983
322.728
322.183
321.637
321.091
320.545
319.997
319.449
318.898
318.347
317.793
317.238
316.68
316.121
315.559
314.997
322.728
322.183
321.639
321.093
320.547
320
319.452
318.903
318.352
317.799
317.245
316.689
316.13
315.57
315.007
322.728
322.184
321.64
321.096
320.55
320.004
319.457
318.908
318.358
317.807
317.253
316.698
316.141
315.582
315.024
322.729
322.186
321.642
321.099
320.554
320.009
319.463
318.915
318.366
317.816
317.263
316.709
316.153
315.594
315.033
322.729
322.187
321.645
321.102
320.558
320.014
319.469
318.923
318.375
317.826
317.275
316.722
316.166
315.608
315.043
322.73
322.189
321.647
321.106
320.563
320.02
319.476
318.931
318.384
317.837
317.287
316.736
316.182
315.626
315.067
322.73
322.19
321.65
321.11
320.569
320.027
319.484
318.94
318.395
317.849
317.301
316.751
316.2
315.645
315.085
322.731
322.192
321.653
321.114
320.575
320.034
319.493
318.95
318.407
317.862
317.316
316.768
316.219
315.669
315.121
322.731
322.194
321.657
321.119
320.581
320.042
319.502
318.961
318.419
317.876
317.332
316.786
316.239
315.691
315.141
322.732
322.197
321.661
321.124
320.588
320.05
319.512
318.973
318.433
317.891
317.349
316.805
316.26
315.714
315.173
322.733
322.199
321.665
321.13
320.595
320.059
319.523
318.985
318.447
317.907
317.366
316.824
316.28
315.735
315.188
322.734
322.201
321.669
321.136
320.603
320.069
319.534
318.998
318.462
317.924
317.385
316.844
316.302
315.756
315.204
322.735
322.204
321.673
321.142
320.611
320.079
319.546
319.012
318.478
317.942
317.405
316.866
316.325
315.782
315.237
322.736
322.207
321.678
321.149
320.619
320.089
319.558
319.027
318.494
317.961
317.426
316.889
316.351
315.809
315.261
322.737
322.21
321.683
321.156
320.628
320.1
319.571
319.042
318.511
317.98
317.448
316.914
316.379
315.841
315.304
322.738
322.213
321.688
321.163
320.637
320.111
319.585
319.057
318.529
318
317.47
316.939
316.407
315.873
315.333
322.739
322.216
321.693
321.17
320.647
320.123
319.598
319.073
318.548
318.021
317.494
316.966
316.438
315.91
315.387
322.74
322.219
321.699
321.178
320.657
320.135
319.613
319.09
318.567
318.043
317.518
316.993
316.467
315.942
315.417
322.741
322.223
321.704
321.186
320.667
320.147
319.628
319.107
318.586
318.064
317.542
317.019
316.496
315.975
315.46
322.742
322.226
321.71
321.194
320.677
320.16
319.643
319.125
318.606
318.087
317.567
317.046
316.525
316.003
315.481
322.743
322.23
321.716
321.202
320.688
320.173
319.658
319.143
318.626
318.11
317.592
317.073
316.553
316.031
315.501
322.744
322.233
321.722
321.21
320.699
320.186
319.674
319.161
318.647
318.133
317.618
317.101
316.584
316.064
315.543
322.746
322.237
321.728
321.219
320.71
320.2
319.69
319.179
318.668
318.157
317.644
317.131
316.616
316.098
315.572
322.747
322.241
321.734
321.228
320.721
320.214
319.706
319.199
318.69
318.181
317.671
317.161
316.649
316.136
315.624
322.748
322.244
321.741
321.237
320.732
320.228
319.723
319.218
318.712
318.206
317.699
317.192
316.684
316.174
315.658
322.749
322.248
321.747
321.246
320.744
320.242
319.74
319.238
318.735
318.231
317.728
317.224
316.72
316.217
315.722
322.751
322.252
321.754
321.255
320.756
320.257
319.757
319.258
318.757
318.257
317.756
317.255
316.754
316.255
315.756
322.752
322.256
321.76
321.264
320.768
320.272
319.775
319.278
318.78
318.283
317.784
317.286
316.788
316.292
315.805
322.753
322.26
321.767
321.274
320.78
320.287
319.793
319.298
318.804
318.308
317.813
317.317
316.821
316.324
315.828
322.755
322.265
321.774
321.284
320.793
320.302
319.811
319.319
318.827
318.335
317.842
317.348
316.853
316.356
315.851
322.756
322.269
321.781
321.293
320.805
320.317
319.829
319.34
318.851
318.361
317.871
317.38
316.887
316.393
315.898
322.758
322.273
321.788
321.303
320.818
320.333
319.847
319.361
318.875
318.388
317.901
317.413
316.923
316.43
315.93
322.759
322.277
321.795
321.313
320.831
320.348
319.866
319.383
318.899
318.416
317.931
317.446
316.96
316.473
315.987
322.761
322.282
321.802
321.323
320.844
320.364
319.885
319.405
318.924
318.443
317.962
317.481
316.999
316.515
316.025
322.762
322.286
321.81
321.333
320.857
320.38
319.904
319.427
318.949
318.471
317.994
317.516
317.038
316.562
316.094
322.763
322.29
321.817
321.344
320.87
320.397
319.923
319.449
318.974
318.5
318.025
317.55
317.076
316.603
316.131
322.765
322.295
321.824
321.354
320.884
320.413
319.942
319.471
319
318.528
318.056
317.584
317.113
316.644
316.185
322.766
322.299
321.832
321.365
320.897
320.43
319.962
319.494
319.025
318.556
318.087
317.618
317.149
316.679
316.21
322.768
322.304
321.84
321.375
320.911
320.446
319.981
319.516
319.051
318.585
318.119
317.652
317.184
316.713
316.234
322.769
322.308
321.847
321.386
320.925
320.463
320.001
319.539
319.077
318.614
318.151
317.687
317.221
316.754
316.286
322.771
322.313
321.855
321.397
320.938
320.48
320.021
319.562
319.103
318.644
318.183
317.722
317.26
316.794
316.32
322.773
322.318
321.863
321.408
320.952
320.497
320.041
319.586
319.13
318.673
318.217
317.759
317.301
316.841
316.382
322.774
322.322
321.87
321.418
320.966
320.514
320.062
319.609
319.157
318.704
318.25
317.796
317.342
316.887
316.424
322.776
322.327
321.878
321.429
320.981
320.532
320.082
319.633
319.184
318.734
318.284
317.834
317.385
316.937
316.499
322.777
322.332
321.886
321.44
320.995
320.549
320.103
319.657
319.211
318.764
318.318
317.872
317.426
316.982
316.539
322.779
322.336
321.894
321.452
321.009
320.566
320.124
319.681
319.238
318.795
318.352
317.909
317.466
317.027
316.597
322.78
322.341
321.902
321.463
321.023
320.584
320.145
319.705
319.265
318.825
318.385
317.945
317.505
317.064
316.625
322.782
322.346
321.91
321.474
321.038
320.602
320.165
319.729
319.293
318.856
318.419
317.981
317.543
317.102
316.651
322.784
322.351
321.918
321.485
321.052
320.619
320.186
319.753
319.32
318.887
318.453
318.018
317.583
317.145
316.707
322.785
322.356
321.926
321.496
321.067
320.637
320.207
319.778
319.348
318.918
318.488
318.056
317.624
317.189
316.744
322.787
322.36
321.934
321.508
321.081
320.655
320.229
319.802
319.376
318.949
318.523
318.095
317.668
317.239
316.811
322.788
322.365
321.942
321.519
321.096
320.673
320.25
319.827
319.404
318.981
318.558
318.135
317.712
317.287
316.856
322.79
322.37
321.95
321.53
321.11
320.691
320.271
319.851
319.432
319.012
318.593
318.175
317.757
317.342
316.936
322.792
322.375
321.958
321.541
321.125
320.708
320.292
319.876
319.46
319.044
318.628
318.214
317.8
317.389
316.979
322.793
322.38
321.966
321.553
321.139
320.726
320.313
319.9
319.487
319.075
318.663
318.252
317.842
317.436
317.041
322.795
322.384
321.974
321.564
321.153
320.743
320.334
319.924
319.515
319.106
318.697
318.289
317.881
317.475
317.069
322.796
322.389
321.982
321.575
321.168
320.761
320.354
319.948
319.542
319.136
318.731
318.326
317.92
317.513
317.096
322.798
322.394
321.99
321.586
321.182
320.778
320.375
319.972
319.569
319.167
318.765
318.363
317.96
317.557
317.154
322.799
322.398
321.997
321.596
321.196
320.795
320.395
319.995
319.596
319.197
318.799
318.4
318.001
317.6
317.191
322.801
322.403
322.005
321.607
321.209
320.812
320.415
320.019
319.623
319.227
318.832
318.438
318.044
317.649
317.258
322.802
322.407
322.012
321.617
321.223
320.829
320.435
320.042
319.649
319.257
318.866
318.475
318.086
317.696
317.301
322.804
322.412
322.02
321.628
321.236
320.845
320.454
320.064
319.675
319.286
318.899
318.512
318.128
317.748
317.378
322.805
322.416
322.027
321.638
321.249
320.861
320.473
320.086
319.7
319.315
318.93
318.548
318.168
317.792
317.418
322.807
322.42
322.034
321.648
321.262
320.877
320.492
320.108
319.724
319.342
318.961
318.582
318.206
317.834
317.474
322.808
322.424
322.041
321.657
321.274
320.892
320.51
320.129
319.748
319.369
318.991
318.614
318.24
317.868
317.499
322.809
322.428
322.048
321.667
321.287
320.907
320.528
320.149
319.771
319.395
319.019
318.645
318.272
317.9
317.522
322.811
322.432
322.054
321.676
321.299
320.921
320.545
320.169
319.794
319.42
319.047
318.675
318.305
317.935
317.569
322.812
322.436
322.061
321.685
321.31
320.935
320.561
320.188
319.815
319.444
319.073
318.704
318.336
317.969
317.598
322.813
322.44
322.067
321.694
321.321
320.949
320.577
320.206
319.836
319.467
319.099
318.733
318.368
318.005
317.647
322.815
322.444
322.073
321.703
321.332
320.963
320.593
320.225
319.857
319.49
319.124
318.76
318.398
318.038
317.676
322.816
322.447
322.079
321.711
321.343
320.976
320.609
320.242
319.876
319.511
319.148
318.786
318.426
318.071
317.725
322.817
322.451
322.085
321.719
321.354
320.988
320.624
320.259
319.895
319.532
319.17
318.81
318.452
318.098
317.749
322.818
322.454
322.091
321.727
321.364
321.001
320.638
320.276
319.914
319.552
319.192
318.832
318.475
318.122
317.777
322.819
322.458
322.097
321.735
321.374
321.013
320.653
320.292
319.932
319.572
319.212
318.853
318.495
318.14
317.789
322.82
322.461
322.102
321.743
321.384
321.025
320.667
320.308
319.95
319.591
319.232
318.873
318.514
318.155
317.797
322.822
322.465
322.108
321.751
321.394
321.038
320.681
320.325
319.968
319.611
319.253
318.893
318.532
318.169
317.806
322.823
322.468
322.113
321.759
321.404
321.05
320.695
320.341
319.986
319.631
319.274
318.915
318.552
318.183
317.809
322.824
322.471
322.119
321.766
321.414
321.062
320.71
320.358
320.005
319.652
319.297
318.939
318.576
318.201
317.802
322.825
322.474
322.124
321.774
321.424
321.074
320.724
320.374
320.024
319.674
319.322
318.968
318.608
318.237
317.833
288.349
287.93
287.545
287.172
286.804
286.44
286.077
285.715
285.353
284.991
284.629
284.267
283.905
283.543
283.181
288.377
287.962
287.573
287.197
286.827
286.46
286.094
285.73
285.366
285.002
284.638
284.274
283.91
283.546
283.182
288.362
287.975
287.594
287.218
286.847
286.478
286.111
285.745
285.379
285.013
284.647
284.281
283.915
283.549
283.183
288.361
287.985
287.61
287.237
286.866
286.496
286.127
285.759
285.391
285.023
284.656
284.288
283.92
283.552
283.184
288.363
287.995
287.624
287.254
286.883
286.513
286.143
285.773
285.404
285.034
284.665
284.295
283.925
283.555
283.185
288.368
288.006
287.639
287.27
286.9
286.53
286.159
285.788
285.416
285.045
284.673
284.302
283.93
283.558
283.186
288.377
288.02
287.656
287.288
286.918
286.546
286.174
285.802
285.429
285.056
284.683
284.309
283.935
283.561
283.187
288.399
288.039
287.675
287.306
286.936
286.564
286.191
285.817
285.442
285.067
284.692
284.316
283.94
283.564
283.188
288.418
288.061
287.696
287.327
286.955
286.582
286.207
285.832
285.455
285.078
284.701
284.323
283.945
283.567
283.189
288.459
288.089
287.72
287.349
286.976
286.601
286.224
285.847
285.469
285.09
284.711
284.331
283.951
283.571
283.19
288.484
288.117
287.746
287.373
286.997
286.62
286.242
285.863
285.483
285.102
284.72
284.339
283.956
283.574
283.191
288.526
288.149
287.774
287.398
287.02
286.641
286.261
285.88
285.497
285.114
284.731
284.346
283.962
283.577
283.192
288.552
288.178
287.802
287.423
287.044
286.663
286.28
285.897
285.512
285.127
284.741
284.355
283.968
283.581
283.194
288.594
288.21
287.831
287.45
287.069
286.685
286.3
285.915
285.528
285.14
284.752
284.363
283.974
283.584
283.195
288.615
288.239
287.86
287.478
287.094
286.709
286.321
285.933
285.544
285.154
284.763
284.372
283.98
283.588
283.196
288.638
288.27
287.891
287.508
287.121
286.733
286.343
285.952
285.56
285.168
284.774
284.381
283.986
283.592
283.197
288.69
288.309
287.926
287.539
287.15
286.758
286.366
285.972
285.577
285.182
284.786
284.39
283.993
283.596
283.199
288.727
288.35
287.963
287.572
287.179
286.785
286.389
285.992
285.595
285.197
284.798
284.399
284
283.6
283.2
288.799
288.398
288.003
287.607
287.21
286.812
286.413
286.013
285.613
285.212
284.811
284.409
284.006
283.604
283.201
288.84
288.442
288.042
287.642
287.241
286.84
286.438
286.035
285.632
285.228
284.823
284.418
284.013
283.608
283.203
288.903
288.489
288.082
287.678
287.273
286.868
286.463
286.057
285.65
285.243
284.836
284.428
284.02
283.612
283.204
288.938
288.53
288.121
287.713
287.305
286.897
286.488
286.079
285.67
285.26
284.849
284.439
284.028
283.617
283.206
288.993
288.572
288.159
287.748
287.337
286.926
286.514
286.102
285.689
285.276
284.863
284.449
284.035
283.621
283.207
289.019
288.609
288.196
287.783
287.369
286.955
286.54
286.124
285.709
285.293
284.876
284.459
284.043
283.626
283.209
289.047
288.646
288.234
287.819
287.402
286.984
286.566
286.148
285.729
285.309
284.89
284.47
284.05
283.63
283.21
289.106
288.691
288.275
287.856
287.435
287.014
286.593
286.171
285.749
285.326
284.904
284.481
284.058
283.635
283.212
289.148
288.737
288.316
287.893
287.469
287.045
286.62
286.194
285.769
285.343
284.917
284.492
284.065
283.639
283.213
289.226
288.789
288.36
287.932
287.503
287.075
286.647
286.218
285.789
285.36
284.932
284.502
284.073
283.644
283.215
289.269
288.837
288.403
287.97
287.538
287.106
286.674
286.242
285.81
285.378
284.946
284.513
284.081
283.649
283.216
289.334
288.885
288.445
288.008
287.572
287.136
286.701
286.266
285.83
285.395
284.96
284.524
284.089
283.653
283.218
289.371
288.928
288.485
288.045
287.605
287.166
286.728
286.289
285.851
285.412
284.974
284.535
284.097
283.658
283.219
289.425
288.97
288.524
288.081
287.639
287.197
286.755
286.313
285.872
285.43
284.988
284.546
284.105
283.663
283.221
289.451
289.006
288.562
288.116
287.671
287.227
286.782
286.337
285.892
285.447
285.002
284.557
284.112
283.668
283.223
289.477
289.043
288.599
288.152
287.704
287.257
286.809
286.361
285.913
285.465
285.017
284.569
284.12
283.672
283.224
289.534
289.086
288.638
288.188
287.737
287.287
286.836
286.384
285.933
285.482
285.031
284.58
284.128
283.677
283.226
289.573
289.129
288.678
288.224
287.771
287.317
286.862
286.408
285.954
285.5
285.045
284.591
284.136
283.682
283.227
289.645
289.178
288.719
288.261