/*--------------------------------*- C++ -*----------------------------------*\
| =========                 |                                                 |
| \\      /  F ield         | OpenFOAM: The Open Source CFD Toolbox           |
|  \\    /   O peration     | Version:  5.x                                   |
|   \\  /    A nd           | Web:      www.OpenFOAM.org                      |
|    \\/     M anipulation  |                                                 |
\*---------------------------------------------------------------------------*/
FoamFile
{
    version     2.0;
    format      ascii;
    class       volScalarField;
    location    "0.4";
    object      gradTy;
}
// * * * * * * * * * * * * * * * * * * * * * * * * * * * * * * * * * * * * * //

dimensions      [0 -1 0 1 0 0 0];

internalField   nonuniform List<scalar> 
6300
(
32266.2
32198.6
32131.2
32064
31997.2
31930.8
31865
31799.9
31735.5
31672.1
31609.6
31548.2
31488
31429.1
31371.6
-0.0729326
-0.219172
-0.366488
-0.515487
-0.66661
-0.820052
-0.975683
-1.13298
-1.29096
-1.44819
-1.60279
-1.75252
-1.89503
-2.02805
-2.14972
-0.121128
-0.364036
-0.608858
-0.856685
-1.10833
-1.36419
-1.62413
-1.88735
-2.15224
-2.41636
-2.67645
-2.9286
-3.16858
-3.3923
-3.59642
-0.168657
-0.506958
-0.848163
-1.19397
-1.54569
-1.90408
-2.26912
-2.63982
-3.01404
-3.38829
-3.75778
-4.11658
-4.45809
-4.77586
-5.06451
-0.21517
-0.646913
-1.08278
-1.52521
-1.97622
-2.4371
-2.90819
-3.38852
-3.8755
-4.36464
-4.84942
-5.32141
-5.77092
-6.1881
-6.56466
-0.260259
-0.782673
-1.31068
-1.84769
-2.39664
-2.95965
-3.5377
-4.13019
-4.73437
-5.34489
-5.95331
-6.54813
-7.11538
-7.64024
-8.10971
-0.30343
-0.912761
-1.52943
-2.15805
-2.80274
-3.46683
-4.1524
-4.85972
-5.58642
-6.32666
-7.07016
-7.8017
-8.50143
-9.14688
-9.71718
-0.344087
-1.03539
-1.73605
-2.45208
-3.18913
-3.95215
-4.74491
-5.56932
-6.42431
-7.30443
-8.19813
-9.08612
-9.94065
-10.7274
-11.4118
-0.381568
-1.14856
-1.9271
-2.72483
-3.54921
-4.40729
-5.30527
-6.24774
-7.23634
-8.26776
-9.33081
-10.4028
-11.4463
-12.4089
-13.2311
-0.415154
-1.25005
-2.09877
-2.97065
-3.87522
-4.82206
-5.82058
-6.87934
-8.00472
-9.19846
-10.4534
-11.7467
-13.0313
-14.229
-15.2352
-0.444108
-1.3376
-2.24705
-3.18349
-4.15855
-5.18465
-6.27503
-7.44354
-8.70379
-10.0668
-11.5361
-13.0976
-14.7017
-16.2388
-17.524
-0.46774
-1.40906
-2.36811
-3.35737
-4.39042
-5.48241
-6.65064
-7.91514
-9.29899
-10.8276
-12.5253
-14.4042
-16.4371
-18.4988
-20.2752
-0.485483
-1.46265
-2.4587
-3.48713
-4.56291
-5.70334
-6.92923
-8.26645
-9.74825
-11.418
-13.3317
-15.5552
-18.142
-21.0419
-23.8276
-0.496971
-1.49722
-2.51668
-3.56919
-4.67027
-5.83822
-7.09569
-8.47218
-10.0083
-11.7631
-13.8266
-16.3414
-19.5317
-23.6965
-28.8364
-0.502105
-1.51243
-2.54137
-3.60233
-4.7103
-5.88299
-7.14233
-8.51725
-10.0485
-11.7981
-13.8688
-16.4504
-19.9449
-25.373
-35.962
31320.2
31274.6
31230.1
31186.7
31144.5
31103.5
31063.7
31025.1
30987.8
30951.8
30917.1
30883.6
30851.4
30820.4
30790.8
30762.3
30735.1
30709.1
30684.2
30660.5
30637.9
30616.3
30595.7
30576.2
30557.5
30539.7
30522.8
30506.6
30491.2
30476.4
30462.4
30448.9
30435.9
30423.5
30411.5
30400
30388.8
30378
30367.5
30357.2
30347.1
30337.2
30327.5
30317.9
30308.3
30298.7
30289.2
30279.6
30269.9
30260.1
30250.2
30240
30229.6
30218.9
30207.9
30196.6
30184.8
30172.6
30159.9
30146.6
30132.8
30118.3
30103.2
30087.4
30070.8
30053.3
30035
30015.8
29995.7
29974.5
29952.3
29929.1
29904.7
29879.1
29852.4
29824.4
29795.2
29764.7
29732.8
29699.7
29665.3
29629.5
29592.3
29553.9
29514.1
29473
29430.6
29386.9
29342
29295.9
-2.24972
-2.33163
-2.40463
-2.46906
-2.52534
-2.57382
-2.61468
-2.64781
-2.67281
-2.68908
-2.69595
-2.69279
-2.67918
-2.655
-2.62042
-2.57589
-2.52207
-2.45977
-2.38984
-2.31316
-2.23061
-2.14305
-2.05135
-1.95636
-1.85893
-1.75983
-1.6598
-1.55949
-1.45947
-1.36021
-1.26212
-1.16551
-1.07061
-0.977564
-0.886454
-0.797272
-0.709957
-0.624399
-0.540458
-0.457971
-0.376755
-0.296605
-0.21729
-0.138551
-0.0601043
0.0183526
0.0971241
0.176501
0.256747
0.338084
0.42069
0.504701
0.590211
0.677276
0.765921
0.856134
0.947871
1.04106
1.13558
1.23131
1.3281
1.42575
1.52407
1.62277
1.72154
1.81996
1.91755
2.01377
2.10799
2.1996
2.28792
2.37227
2.45193
2.52612
2.59403
2.65482
2.70764
2.75173
2.78641
2.81114
2.82547
2.82904
2.82147
2.80238
2.77132
2.72784
2.67157
2.60233
2.52023
2.42577
-3.76358
-3.90001
-4.02122
-4.12795
-4.22119
-4.30175
-4.37005
-4.4259
-4.46854
-4.49676
-4.50919
-4.5046
-4.48215
-4.44158
-4.38323
-4.30797
-4.21702
-4.11182
-3.99388
-3.86469
-3.72572
-3.57841
-3.42421
-3.26458
-3.10092
-2.9346
-2.76685
-2.59876
-2.43129
-2.26523
-2.10124
-1.93985
-1.78144
-1.62625
-1.4744
-1.32586
-1.18051
-1.03813
-0.898491
-0.761302
-0.626266
-0.493048
-0.361267
-0.230487
-0.10022
0.0300595
0.160885
0.292765
0.426154
0.561433
0.698899
0.838769
0.981196
1.12627
1.27403
1.42446
1.57748
1.73296
1.89071
2.05051
2.21211
2.37521
2.53949
2.70453
2.86978
3.03458
3.19811
3.35942
3.51748
3.67121
3.8195
3.96124
4.09522
4.22017
4.3347
4.43734
4.52661
4.60116
4.65984
4.70176
4.72625
4.73278
4.72081
4.6897
4.63865
4.56677
4.47329
4.35774
4.22018
4.06135
-5.29937
-5.48988
-5.65816
-5.80582
-5.93484
-6.04693
-6.14296
-6.22269
-6.28475
-6.32695
-6.34677
-6.34198
-6.3111
-6.25368
-6.17035
-6.06259
-5.93246
-5.78223
-5.61414
-5.43035
-5.23288
-5.02375
-4.80499
-4.57867
-4.34686
-4.11153
-3.87447
-3.63725
-3.40118
-3.16736
-2.93672
-2.70999
-2.48772
-2.27024
-2.05768
-1.84996
-1.64685
-1.44802
-1.25307
-1.06161
-0.873227
-0.687483
-0.503856
-0.321732
-0.140394
0.0409452
0.223096
0.40683
0.592822
0.781621
0.973635
1.16915
1.36837
1.57141
1.77831
1.98907
2.20356
2.4216
2.6429
2.86713
3.09395
3.32298
3.55382
3.78595
4.01865
4.25101
4.48182
4.7097
4.93312
5.15055
5.36043
5.56124
5.75138
5.92908
6.09231
6.2389
6.36656
6.47322
6.55717
6.61722
6.65262
6.66287
6.64744
6.60546
6.53567
6.43651
6.30647
6.14452
5.95046
5.7252
-6.86792
-7.11143
-7.32443
-7.51017
-7.67253
-7.81486
-7.93899
-8.04461
-8.12931
-8.18914
-8.21963
-8.21684
-8.17822
-8.1031
-7.99267
-7.84951
-7.67695
-7.47846
-7.25717
-7.01585
-6.75703
-6.48316
-6.19686
-5.9009
-5.5981
-5.29119
-4.98259
-4.67432
-4.36805
-4.06516
-3.7668
-3.47394
-3.1873
-2.90734
-2.63417
-2.3676
-2.10721
-1.85244
-1.60274
-1.35758
-1.11649
-0.87895
-0.644348
-0.411892
-0.180602
0.0506485
0.283033
0.517663
0.755486
0.997229
1.24339
1.4943
1.75015
2.01108
2.27718
2.54843
2.82471
3.10572
3.39104
3.68021
3.97278
4.26834
4.56649
4.8667
5.16821
5.46981
5.76991
6.06652
6.35753
6.64083
6.91449
7.17667
7.42549
7.65879
7.87388
8.06763
8.23666
8.37785
8.48877
8.56799
8.61499
8.62974
8.61206
8.56102
8.47473
8.35045
8.18535
7.97724
7.72529
7.4305
-8.48196
-8.77599
-9.029
-9.24721
-9.43802
-9.60794
-9.76058
-9.89555
-10.0086
-10.0925
-10.1394
-10.1424
-10.0971
-10.0026
-9.86143
-9.67814
-9.45827
-9.20702
-8.92861
-8.62622
-8.30253
-7.96023
-7.60245
-7.2328
-6.85515
-6.47321
-6.09016
-5.70847
-5.33005
-4.95643
-4.58897
-4.22893
-3.8773
-3.53469
-3.20119
-2.87638
-2.5595
-2.24962
-1.94591
-1.64775
-1.35467
-1.06622
-0.781783
-0.500406
-0.220778
0.058697
0.339721
0.623888
0.9125
1.20647
1.50632
1.81232
2.12461
2.44332
2.76862
3.10057
3.43904
3.78362
4.13364
4.48839
4.84728
5.20992
5.5761
5.94552
6.31749
6.69065
7.06281
7.43119
7.79275
8.14468
8.48469
8.81088
9.12148
9.41416
9.68558
9.93129
10.1461
10.3253
10.4652
10.5643
10.6229
10.6423
10.6237
10.5663
10.4674
10.3221
10.1251
9.87201
9.56081
9.19233
-10.1588
-10.4984
-10.7825
-11.0224
-11.2322
-11.4245
-11.6061
-11.7766
-11.928
-12.0477
-12.121
-12.1359
-12.0852
-11.9681
-11.7896
-11.5583
-11.2837
-10.9738
-10.6337
-10.2665
-9.87415
-9.459
-9.0246
-8.57576
-8.11798
-7.6565
-7.19547
-6.73768
-6.28493
-5.83864
-5.40032
-4.97166
-4.55419
-4.14883
-3.75561
-3.37369
-3.00163
-2.63784
-2.28105
-1.93055
-1.58612
-1.24766
-0.914758
-0.586353
-0.260686
0.0645633
0.391934
0.723766
1.06186
1.40729
1.76047
2.12136
2.48988
2.86615
3.25054
3.64338
4.04464
4.45371
4.86945
5.29063
5.71637
6.14639
6.58098
7.02055
7.46493
7.91271
8.36094
8.80538
9.24146
9.66528
10.0742
10.467
10.8426
11.1993
11.5334
11.8384
12.106
12.328
12.4991
12.6175
12.6857
12.7083
12.6894
12.6298
12.5252
12.3666
12.1439
11.8488
11.4771
11.0294
-11.9233
-12.2994
-12.5977
-12.8391
-13.0501
-13.2547
-13.4661
-13.6832
-13.8916
-14.0677
-14.1851
-14.2222
-14.1674
-14.0206
-13.7924
-13.4995
-13.1589
-12.7828
-12.377
-11.9421
-11.4778
-10.9848
-10.4669
-9.93103
-9.38564
-8.83873
-8.29575
-7.75933
-7.23027
-6.70917
-6.19758
-5.69812
-5.2135
-4.74536
-4.29367
-3.85672
-3.43179
-3.01592
-2.60707
-2.20456
-1.80892
-1.42106
-1.0412
-0.66831
-0.299947
0.0674134
0.43776
0.81467
1.2007
1.59702
2.00356
2.41947
2.84404
3.27735
3.72032
4.17409
4.63904
5.11421
5.59745
6.0863
6.57924
7.0762
7.57859
8.08848
8.60725
9.13388
9.66419
10.1912
10.7074
11.2067
11.6865
12.1469
12.5899
13.0162
13.4222
13.7983
14.13
14.4029
14.6072
14.7415
14.8125
14.8321
14.812
14.7565
14.6586
14.5014
14.2649
13.9339
13.501
12.9667
-13.814
-14.2106
-14.4933
-14.6978
-14.8755
-15.0738
-15.3164
-15.6014
-15.9008
-16.1714
-16.3638
-16.4402
-16.3811
-16.1898
-15.8877
-15.5087
-15.0849
-14.6345
-14.1617
-13.6601
-13.1227
-12.5464
-11.9353
-11.3001
-10.6556
-10.0154
-9.38672
-8.77059
-8.16433
-7.56623
-6.97762
-6.40343
-5.84932
-5.31842
-4.81067
-4.32266
-3.84906
-3.38408
-2.92415
-2.4688
-2.02063
-1.58304
-1.15769
-0.743814
-0.33781
0.0659255
0.474111
0.892441
1.32473
1.77207
2.23321
2.70522
3.18571
3.67477
4.1747
4.68888
5.21886
5.76328
6.3175
6.87625
7.43649
7.99833
8.56553
9.14372
9.73829
10.3498
10.9721
11.5926
12.1972
12.7762
13.3263
13.8517
14.3607
14.8617
15.3533
15.8212
16.2381
16.5754
16.8153
16.9556
17.0122
17.0119
16.9844
16.9427
16.8761
16.7492
16.5208
16.1646
15.6695
15.039
-15.8947
-16.284
-16.4997
-16.5937
-16.6694
-16.8274
-17.1044
-17.4979
-17.9506
-18.3874
-18.709
-18.853
-18.7851
-18.5186
-18.094
-17.5826
-17.0493
-16.5187
-15.9883
-15.4301
-14.8242
-14.1585
-13.4391
-12.6831
-11.9201
-11.1764
-10.4602
-9.76826
-9.08727
-8.41024
-7.73748
-7.08041
-6.45228
-5.85866
-5.29976
-4.76829
-4.25436
-3.74537
-3.235
-2.72303
-2.21744
-1.72766
-1.25787
-0.808175
-0.372556
0.0579136
0.495768
0.950058
1.42707
1.92725
2.44726
2.97887
3.51517
4.05668
4.6088
5.18112
5.77818
6.39849
7.03134
7.66434
8.29171
8.91304
9.53692
10.1756
10.8452
11.5502
12.2828
13.0171
13.724
14.3873
15.0016
15.5798
16.143
16.7205
17.3182
17.9169
18.4605
18.8875
19.1661
19.2896
19.2928
19.23
19.1764
19.1639
19.1798
19.1421
18.9601
18.5946
18.0325
17.2944
-18.2764
-18.6055
-18.6797
-18.5139
-18.3431
-18.4071
-18.7221
-19.3064
-20.0203
-20.7664
-21.3073
-21.5685
-21.4729
-21.0727
-20.423
-19.6863
-19.0082
-18.4013
-17.8534
-17.2676
-16.611
-15.8469
-14.9949
-14.0754
-13.1562
-12.2971
-11.4985
-10.7498
-10.0042
-9.24788
-8.47451
-7.71556
-7.00537
-6.34881
-5.74925
-5.18857
-4.65246
-4.10855
-3.54806
-2.968
-2.39138
-1.84342
-1.32905
-0.852195
-0.399811
0.0393535
0.493852
0.975053
1.49616
2.05397
2.64474
3.24587
3.83728
4.42346
5.01392
5.6379
6.30416
7.0158
7.7451
8.46067
9.15572
9.82414
10.4869
11.163
11.9011
12.7108
13.5907
14.4805
15.3132
16.0685
16.728
17.3286
17.9037
18.549
19.2801
20.0904
20.8489
21.4114
21.7382
21.7944
21.6661
21.4324
21.3064
21.3414
21.5577
21.7398
21.6605
21.3046
20.6463
19.7998
-21.167
-21.2914
-21.2026
-20.4386
-19.6756
-19.623
-19.9496
-20.9257
-22.0412
-23.4386
-24.3062
-24.7961
-24.5973
-23.9846
-22.876
-21.704
-20.8635
-20.1978
-19.7723
-19.2063
-18.5523
-17.6615
-16.6474
-15.4673
-14.3058
-13.3307
-12.4647
-11.727
-10.9368
-10.1102
-9.19091
-8.28063
-7.48134
-6.75699
-6.14289
-5.57359
-5.06191
-4.49577
-3.88943
-3.20813
-2.52412
-1.91085
-1.3462
-0.860977
-0.408035
-0.00128602
0.453482
0.942609
1.51242
2.1333
2.8274
3.52702
4.16707
4.78428
5.37098
6.03399
6.765
7.60795
8.47887
9.28682
10.0583
10.7436
11.4179
12.0613
12.8538
13.7703
14.8841
16.0263
17.0133
17.8873
18.5388
19.1135
19.5622
20.2529
21.1265
22.3371
23.5181
24.2729
24.698
24.5627
24.1891
23.4771
23.2019
23.2555
23.982
24.7113
24.7567
24.4474
23.5283
22.6713
-25.043
-24.2809
-24.6942
-22.3586
-19.9818
-20.2899
-20.2389
-22.3419
-23.6541
-26.8717
-27.8475
-29.0136
-28.3167
-27.6094
-25.4195
-23.2437
-22.4662
-21.6483
-21.8931
-21.2721
-20.8344
-19.6541
-18.5396
-16.8327
-15.1872
-14.2078
-13.2466
-12.7805
-11.9223
-11.1063
-9.89492
-8.68634
-7.84981
-7.0068
-6.47239
-5.87603
-5.55019
-4.94125
-4.33909
-3.45245
-2.55518
-1.90845
-1.24913
-0.823369
-0.349838
-0.111166
0.363538
0.793918
1.45509
2.10723
3.00217
3.89413
4.52994
5.18925
5.61843
6.33241
7.06495
8.16015
9.30371
10.1658
11.0856
11.6791
12.3936
12.7452
13.628
14.546
16.1367
17.7956
18.876
20.0262
20.46
21.0792
20.8714
21.6927
22.4864
24.625
26.7998
27.6077
28.4629
27.6723
27.1973
24.8906
24.6217
24.1979
26.3997
28.6651
28.3608
28.4661
26.3183
26.2099
-31.6042
-25.5749
-32.1406
-24.3347
-16.4184
-21.47
-17.423
-24.8929
-22.5197
-33.5299
-31.1117
-35.9115
-32.0484
-33.3669
-27.9406
-22.7678
-24.1252
-21.5671
-25.2597
-23.073
-24.1856
-21.5513
-21.2846
-18.1094
-15.1092
-15.0586
-13.3153
-14.3986
-12.8472
-12.672
-10.595
-8.55634
-8.22765
-6.81231
-6.89118
-5.78902
-6.44631
-5.37715
-5.19855
-3.71216
-2.22548
-1.92415
-0.815649
-0.854517
0.0465984
-0.560947
0.337413
0.312863
1.41078
1.73157
3.18141
4.6303
4.85919
5.92588
5.45596
6.60436
6.84293
8.64306
10.5342
10.9624
12.5829
12.4409
13.8921
12.6641
14.3517
14.3528
17.291
20.3978
20.6381
23.1964
22.1137
24.2347
20.6976
23.1705
21.908
26.8588
32.048
30.8719
34.5954
30.3246
32.84
23.3662
26.2609
21.3556
28.7219
36.3152
31.3712
35.7252
26.1677
31.8916
-50.4671
-8.72864
-60.2781
-26.4657
5.82288
-35.7486
1.9812
-41.6147
-2.10996
-59.5225
-23.9794
-55.282
-28.317
-48.8355
-30.0953
-12.8865
-31.4217
-12.4838
-37.0926
-20.1225
-32.933
-20.0395
-28.2184
-19.1347
-10.7836
-18.3474
-9.31398
-19.8115
-11.7908
-16.9772
-11.2404
-5.96424
-10.1706
-4.46632
-9.01106
-3.16865
-9.82907
-4.53108
-7.94173
-3.97256
-0.188891
-3.10228
1.27014
-2.23929
2.61558
-3.17943
1.64021
-1.78476
2.48552
-0.270023
3.36219
7.12364
3.98234
8.8757
2.96332
8.1868
4.37247
8.99541
13.8722
10.0426
16.6193
10.9088
19.2494
8.38478
17.5041
9.93007
18.2028
27.1282
19.0624
31.6102
19.1537
35.5377
11.8679
30.0262
12.3807
28.7478
46.4607
27.0785
52.238
23.202
55.7446
4.02752
39.129
0.838374
30.7136
62.0151
20.9889
63.0132
4.0087
49.6771
29243.9
29185.7
29125.9
29064.8
29002.5
28938.9
28874.4
28808.9
28742.6
28675.7
28608.1
28540.1
28471.8
28403.2
28334.4
2.30922
2.16739
2.01363
1.85101
1.68269
1.51158
1.34014
1.1703
1.00337
0.840106
0.680734
0.525064
0.372581
0.222533
0.0740055
3.86488
3.62542
3.36571
3.09121
2.80746
2.51954
2.23169
1.94717
1.66814
1.39577
1.13036
0.871494
0.618208
0.369162
0.122756
5.44544
5.10354
4.73242
4.34052
3.93629
3.52732
3.11986
2.71849
2.32618
1.9444
1.57336
1.21225
0.859517
0.513098
0.170592
7.06226
6.61046
6.11953
5.60184
5.06955
4.53338
4.00176
3.48063
2.9736
2.48222
2.00633
1.54452
1.09441
0.653054
0.217079
8.72824
8.15563
7.53261
6.87703
6.2061
5.53435
4.87275
4.22841
3.60523
3.00442
2.42514
1.86496
1.32047
0.787555
0.261723
10.4591
9.74987
8.97701
8.1665
7.34248
6.52435
5.72571
4.95447
4.21413
3.50493
2.82469
2.16962
1.53485
0.914906
0.303961
12.2753
11.4063
10.4577
9.46824
8.47188
7.49389
6.55026
5.64875
4.79131
3.97611
3.19888
2.45384
1.73432
1.03319
0.343161
14.2053
13.1414
11.9785
10.776
9.58213
8.42841
7.33182
6.298
5.32546
4.4088
3.54058
2.71235
1.91526
1.14032
0.378636
16.2889
14.9749
13.5381
12.0745
10.6516
9.30553
8.0502
6.88529
5.80301
4.79247
3.84189
2.93949
2.07387
1.23411
0.409676
18.587
16.9287
15.1225
13.3305
11.6424
10.0909
8.67755
7.38929
6.20813
5.11563
4.09461
3.12956
2.20646
1.31247
0.435604
21.2176
19.0279
16.6905
14.481
12.4948
10.7368
9.1787
7.78529
6.52386
5.36671
4.29093
3.27739
2.30973
1.37358
0.45584
24.4508
21.2735
18.1293
15.4068
13.118
11.1817
9.51416
8.04835
6.73449
5.53581
4.42458
3.37902
2.38129
1.41615
0.469976
28.939
23.4831
19.1448
15.8968
13.3869
11.3569
9.6469
8.15849
6.82908
5.61685
4.49211
3.43249
2.42004
1.43963
0.477843
35.6588
24.5718
19.0683
15.6466
13.1743
11.2111
9.55702
8.10861
6.80567
5.60977
4.49411
3.43847
2.42653
1.44437
0.479556
-0.501628
-1.51059
-2.53687
-3.59283
-4.69212
-5.85047
-7.08694
-8.4258
-9.90011
-11.5582
-13.4764
-15.7863
-18.7355
-22.8204
-28.96
-0.496795
-1.49553
-2.50987
-3.55075
-4.62993
-5.76046
-6.95716
-8.23745
-9.62228
-11.1372
-12.8117
-14.6695
-16.6759
-18.4861
-18.2965
-0.488359
-1.46957
-2.46431
-3.48185
-4.5318
-5.62407
-6.76879
-7.97581
-9.25339
-10.6047
-12.0188
-13.4484
-14.7508
-15.5391
-14.8619
-0.476782
-1.43412
-2.40278
-3.39028
-4.404
-5.45085
-6.5366
-7.66452
-8.8326
-10.0278
-11.2144
-12.3145
-13.1819
-13.608
-13.5478
-0.462562
-1.39075
-2.32804
-3.28032
-4.25293
-5.25024
-6.27464
-7.32479
-8.39243
-9.45605
-10.4691
-11.3412
-11.9184
-12.0137
-11.881
-0.446197
-1.34097
-2.24281
-3.15607
-4.08446
-5.03046
-5.99431
-6.97243
-7.95463
-8.91886
-9.82071
-10.5721
-10.9885
-10.5768
-7.49657
-0.428156
-1.28624
-2.14954
-3.02117
-3.90354
-4.79792
-5.70359
-6.61676
-7.52898
-8.42455
-9.27571
-10.0354
-10.6327
-10.9924
-11.3845
-0.408864
-1.22783
-2.05042
-2.87868
-3.71411
-4.55724
-5.40719
-6.26124
-7.11461
-7.96081
-8.79326
-9.6112
-10.4414
-11.3847
-12.6827
-0.388694
-1.16686
-1.94727
-2.73113
-3.5192
-4.31157
-5.10754
-5.90572
-6.70487
-7.5064
-8.32015
-9.17809
-10.1709
-11.53
-13.8233
-0.367964
-1.10427
-1.84164
-2.58056
-3.32117
-4.06321
-4.80604
-5.54909
-6.29311
-7.04331
-7.81579
-8.65099
-9.64548
-11.0262
-13.3901
-0.346952
-1.04089
-1.73487
-2.42873
-3.12206
-3.81417
-4.50417
-5.19144
-5.87674
-6.56455
-7.26747
-8.01295
-8.85155
-9.83924
-10.8303
-0.325898
-0.977424
-1.6281
-2.27718
-2.92372
-3.56647
-4.20401
-4.83491
-5.45834
-6.07511
-6.68929
-7.31
-7.95383
-8.64971
-9.50243
-0.305012
-0.914505
-1.52236
-2.12733
-2.72791
-3.32231
-3.90834
-4.4834
-5.04437
-5.58732
-6.10637
-6.59084
-7.01981
-7.35115
-7.46617
-0.284479
-0.852682
-1.41858
-1.98045
-2.53633
-3.08388
-3.62019
-4.14154
-4.64279
-5.11601
-5.54734
-5.91012
-6.15351
-6.20279
-6.14091
-0.264457
-0.79243
-1.31753
-1.83767
-2.35048
-2.85318
-3.34236
-3.81357
-4.2606
-4.67373
-5.03583
-5.31227
-5.42201
-5.13165
-3.5632
-0.24508
-0.734147
-1.21989
-1.69992
-2.17159
-2.63183
-3.07695
-3.50235
-3.9019
-4.26687
-4.58378
-4.83022
-4.96839
-4.94818
-4.84526
-0.226454
-0.678154
-1.12619
-1.56796
-2.00061
-2.42093
-2.82521
-3.20906
-3.5672
-3.89339
-4.1807
-4.42342
-4.62486
-4.82229
-5.15062
-0.208661
-0.624694
-1.03682
-1.4423
-1.83816
-2.22116
-2.58765
-2.9336
-3.2547
-3.54696
-3.80862
-4.0454
-4.28427
-4.60571
-5.20293
-0.19176
-0.573939
-0.952061
-1.3233
-1.68464
-2.03284
-2.36436
-2.67543
-2.96226
-3.22184
-3.4539
-3.66605
-3.88651
-4.19788
-4.84645
-0.175788
-0.525998
-0.872078
-1.21117
-1.54026
-1.85612
-2.1553
-2.43412
-2.68881
-2.9159
-3.11311
-3.28108
-3.42583
-3.55617
-3.62179
-0.160765
-0.480925
-0.79695
-1.10599
-1.40506
-1.691
-1.96041
-2.20961
-2.43459
-2.63081
-2.79276
-2.91239
-2.97535
-2.95965
-2.90601
-0.146694
-0.438728
-0.726679
-1.00775
-1.27901
-1.5374
-1.77961
-2.002
-2.20041
-2.36961
-2.50195
-2.58323
-2.57971
-2.38972
-1.62213
-0.133565
-0.399373
-0.661198
-0.916322
-1.16193
-1.39508
-1.61262
-1.81111
-1.9866
-2.13414
-2.24674
-2.31311
-2.31377
-2.22112
-2.05832
-0.121356
-0.362792
-0.600385
-0.831526
-1.05354
-1.26364
-1.45892
-1.63628
-1.7923
-1.92305
-2.02378
-2.08879
-2.11284
-2.10147
-2.11437
-0.110037
-0.328889
-0.544069
-0.753096
-0.953446
-1.14254
-1.31775
-1.47636
-1.61565
-1.73292
-1.8258
-1.89309
-1.93671
-1.96523
-1.99015
-0.0995691
-0.297548
-0.492044
-0.680718
-0.86121
-1.03115
-1.18816
-1.32995
-1.4544
-1.55984
-1.64574
-1.714
-1.77128
-1.83174
-1.91445
-0.0899104
-0.268638
-0.444082
-0.61405
-0.776343
-0.928778
-1.06922
-1.19568
-1.30645
-1.40046
-1.4781
-1.54273
-1.60385
-1.68305
-1.82228
-0.0810153
-0.24202
-0.399945
-0.552741
-0.698362
-0.834792
-0.960079
-1.07241
-1.17023
-1.25258
-1.31963
-1.37406
-1.42408
-1.49291
-1.65599
-0.0728372
-0.217553
-0.359393
-0.496444
-0.626805
-0.7486
-0.860005
-0.959288
-1.04487
-1.11544
-1.17009
-1.20861
-1.23145
-1.23757
-1.20114
-0.0653294
-0.195096
-0.322187
-0.444824
-0.561239
-0.669679
-0.768422
-0.855772
-0.930042
-0.989455
-1.03189
-1.0542
-1.05061
-1.01197
-0.947986
-0.0584457
-0.17451
-0.288097
-0.397557
-0.50125
-0.597546
-0.684818
-0.761424
-0.825621
-0.875365
-0.907805
-0.917914
-0.894267
-0.804145
-0.525731
-0.0521403
-0.155659
-0.256893
-0.354324
-0.446439
-0.531731
-0.60869
-0.675774
-0.731325
-0.773389
-0.799349
-0.805192
-0.784227
-0.727212
-0.640414
-0.0463683
-0.138407
-0.228351
-0.314812
-0.396404
-0.471752
-0.539483
-0.598208
-0.646477
-0.682686
-0.704979
-0.711198
-0.699348
-0.671093
-0.64613
-0.0410852
-0.12262
-0.202249
-0.278708
-0.350742
-0.417111
-0.476591
-0.527977
-0.570079
-0.601732
-0.62188
-0.629856
-0.625984
-0.612812
-0.593765
-0.0362476
-0.108168
-0.178366
-0.245702
-0.309048
-0.367297
-0.419375
-0.46426
-0.50101
-0.528843
-0.547333
-0.556836
-0.55919
-0.558729
-0.56219
-0.0318127
-0.0949228
-0.156489
-0.215491
-0.270924
-0.321809
-0.367208
-0.406255
-0.438199
-0.462512
-0.479115
-0.488871
-0.494453
-0.502035
-0.523178
-0.0277393
-0.0827597
-0.136408
-0.187781
-0.235987
-0.280166
-0.3195
-0.353239
-0.380749
-0.401598
-0.415734
-0.423887
-0.428422
-0.436028
-0.468587
-0.0239871
-0.0715585
-0.117924
-0.162289
-0.203873
-0.241922
-0.275718
-0.304599
-0.327982
-0.345404
-0.35658
-0.36149
-0.360341
-0.352785
-0.330515
-0.0205175
-0.0612032
-0.100843
-0.138747
-0.174239
-0.206662
-0.235388
-0.259821
-0.279404
-0.2936
-0.301841
-0.303364
-0.296781
-0.279836
-0.255113
-0.0172932
-0.0515818
-0.0849789
-0.116896
-0.146757
-0.173997
-0.198071
-0.218451
-0.234609
-0.245977
-0.251823
-0.250921
-0.240475
-0.21235
-0.135937
-0.014278
-0.0425863
-0.0701532
-0.0964896
-0.121114
-0.143554
-0.163349
-0.180046
-0.193178
-0.202227
-0.206538
-0.205151
-0.196497
-0.178443
-0.152529
-0.0114366
-0.0341113
-0.0561915
-0.0772845
-0.0970033
-0.114968
-0.130805
-0.144146
-0.154613
-0.161801
-0.16525
-0.164465
-0.159089
-0.150035
-0.144157
-0.0087347
-0.0260539
-0.0429229
-0.0590445
-0.0741249
-0.0878759
-0.100015
-0.110266
-0.118353
-0.123997
-0.126937
-0.126998
-0.124269
-0.119457
-0.11311
-0.0061385
-0.0183129
-0.0301798
-0.0415359
-0.0521806
-0.0619172
-0.0705547
-0.0779098
-0.0838085
-0.0880929
-0.0906504
-0.0914947
-0.0909222
-0.0899729
-0.0920499
-0.0036146
-0.0107884
-0.0177962
-0.0245279
-0.0308751
-0.0367321
-0.0419981
-0.046581
-0.0504016
-0.0534033
-0.0555746
-0.0569942
-0.057859
-0.05841
-0.0575736
-0.00112994
-0.00338142
-0.00560756
-0.00779127
-0.00991551
-0.0119643
-0.0139252
-0.0157928
-0.0175749
-0.019301
-0.0210356
-0.0228926
-0.0250291
-0.0278266
-0.033914
0.00134845
0.00400672
0.00654962
0.00890159
0.0109888
0.0127386
0.014078
0.0149298
0.0152064
0.0148013
0.0135801
0.0113957
0.00825113
0.00503203
0.0069868
0.0038535
0.0114746
0.0188389
0.0257778
0.0321269
0.0377259
0.0424187
0.0460501
0.0484598
0.0494699
0.0488623
0.0463495
0.0415808
0.0342955
0.0253604
0.00641835
0.0191213
0.0314243
0.0430651
0.0537878
0.063345
0.0714991
0.0780218
0.0826891
0.0852667
0.0854712
0.0828753
0.0766625
0.0647088
0.0391678
0.00907651
0.0270471
0.044472
0.0609934
0.0762627
0.089944
0.101719
0.111289
0.118378
0.122722
0.124035
0.121924
0.115742
0.104568
0.0896453
0.0118621
0.0353539
0.0581508
0.0797967
0.0998472
0.117875
0.13348
0.146292
0.155988
0.162297
0.164991
0.16382
0.158306
0.14705
0.124693
0.0148101
0.0441465
0.0726341
0.0997151
0.124846
0.147502
0.167193
0.183474
0.195969
0.204405
0.208654
0.208755
0.204885
0.197267
0.187833
0.0179564
0.0535325
0.0881006
0.120997
0.151574
0.179203
0.203293
0.223306
0.238792
0.249448
0.255225
0.256481
0.2541
0.248783
0.234599
0.0213382
0.063623
0.104735
0.143902
0.180363
0.21338
0.242246
0.266307
0.284997
0.297912
0.304971
0.306772
0.305398
0.306505
0.326654
0.0249938
0.0745332
0.122731
0.168699
0.211561
0.25046
0.284561
0.313068
0.335247
0.350479
0.358411
0.359316
0.355026
0.35106
0.360109
0.0289625
0.0863816
0.142285
0.195667
0.245532
0.290896
0.33079
0.364258
0.390359
0.408161
0.416779
0.41552
0.404487
0.386643
0.373731
0.0332849
0.0992896
0.163601
0.225093
0.282649
0.335158
0.381513
0.420604
0.451277
0.472271
0.482061
0.478573
0.458744
0.418871
0.364673
0.0380022
0.113381
0.186887
0.257271
0.323295
0.383722
0.437319
0.482837
0.518967
0.544216
0.556626
0.55304
0.526993
0.461119
0.291682
0.0431563
0.128783
0.212353
0.292497
0.367853
0.437062
0.498774
0.551638
0.594266
0.625138
0.642369
0.643181
0.62298
0.575362
0.506193
0.0487895
0.145621
0.240212
0.33107
0.416706
0.495642
0.566418
0.6276
0.677789
0.715601
0.739592
0.747997
0.738096
0.704668
0.632917
0.0549446
0.164025
0.270679
0.37329
0.47024
0.559926
0.640769
0.711251
0.76997
0.815737
0.847724
0.86562
0.869659
0.8607
0.846088
0.0616643
0.184123
0.303971
0.419462
0.528849
0.630389
0.722365
0.803131
0.871214
0.925521
0.965735
0.992971
1.01037
1.02079
1.00346
0.0689912
0.206044
0.340302
0.469895
0.592938
0.707534
0.811796
0.90388
0.982099
1.04518
1.09286
1.12727
1.15605
1.20033
1.32173
0.0769671
0.229913
0.37989
0.5249
0.662921
0.791897
0.909736
1.01432
1.10357
1.17561
1.2293
1.26561
1.29113
1.32647
1.42178
0.085632
0.255854
0.422942
0.584781
0.739216
0.884034
1.01693
1.13548
1.23708
1.31889
1.37793
1.41156
1.41954
1.41116
1.42446
0.0950235
0.283979
0.469653
0.649823
0.82222
0.984488
1.13414
1.26848
1.38439
1.47807
1.54432
1.57546
1.55945
1.48099
1.35958
0.105175
0.314392
0.520198
0.720284
0.912283
1.09374
1.26205
1.41433
1.54724
1.65638
1.73522
1.77224
1.7429
1.58081
1.04347
0.116116
0.34718
0.574726
0.796376
1.00969
1.21216
1.40112
1.57371
1.72666
1.85583
1.95527
2.01524
2.01869
1.94139
1.80361
0.12787
0.382415
0.633359
0.878268
1.11466
1.33998
1.5516
1.7468
1.92267
2.076
2.20286
2.29761
2.35072
2.34415
2.22941
0.140456
0.420152
0.696187
0.966086
1.22733
1.47734
1.71354
1.93335
2.13439
2.31465
2.47288
2.60903
2.72439
2.82224
2.92832
0.153887
0.460433
0.763279
1.05992
1.3478
1.62432
1.88687
2.13299
2.36061
2.56867
2.75833
2.93504
3.11038
3.29485
3.42245
0.168171
0.503281
0.834678
1.15984
1.47616
1.78099
2.07164
2.34552
2.60046
2.83553
3.05288
3.26212
3.49021
3.8072
4.41306
0.183309
0.548702
0.910401
1.26587
1.6125
1.94752
2.26807
2.57122
2.85415
3.11473
3.35316
3.57623
3.80847
4.11919
4.67779
0.199294
0.596679
0.990433
1.37804
1.75687
2.12408
2.47658
2.81097
3.12337
3.40935
3.66415
3.88408
4.07237
4.25925
4.55147
0.216109
0.647166
1.07471
1.49628
1.90927
2.31081
2.69765
3.06598
3.41091
3.72562
3.99941
4.21397
4.33736
4.32634
4.24702
0.233724
0.700076
1.1631
1.62045
2.06959
2.5077
2.93154
3.33719
3.71942
4.07029
4.3758
4.60721
4.69577
4.44097
3.08354
0.252093
0.755273
1.25539
1.75027
2.2375
2.71443
3.17799
3.62459
4.04962
4.4464
4.80361
5.09961
5.29264
5.32136
5.26017
0.271151
0.812568
1.35128
1.88532
2.4125
2.93035
3.43614
3.92687
4.39933
4.84989
5.27386
5.66345
6.00357
6.2642
6.35888
0.290812
0.871706
1.45035
2.02506
2.59387
3.15454
3.70462
4.24171
4.76409
5.2717
5.76785
6.2615
6.7696
7.32221
8.01386
0.310964
0.932363
1.5521
2.1688
2.78078
3.38595
3.98195
4.56661
5.13892
5.70125
6.26339
6.84933
7.50456
8.28351
9.08237
0.331469
0.99413
1.65586
2.31571
2.97228
3.62355
4.26699
4.89987
5.52046
6.13069
6.74216
7.38876
8.15333
9.23073
11.1228
0.352148
1.05649
1.76084
2.46479
3.16729
3.86641
4.55913
5.24143
5.90891
6.55895
7.19623
7.84592
8.58451
9.61181
11.4215
0.372775
1.11878
1.866
2.61473
3.36448
4.11349
4.85826
5.59299
6.30915
6.99572
7.64127
8.24093
8.81475
9.44905
10.336
0.393066
1.18016
1.96999
2.76382
3.56198
4.36328
5.16408
5.95711
6.72955
7.46054
8.11773
8.65335
9.00247
9.1103
9.22512
0.412662
1.23957
2.07108
2.90973
3.7571
4.61313
5.47499
6.33515
7.17831
7.97611
8.67805
9.1947
9.35712
8.76606
6.00983
0.431133
1.29571
2.16709
3.04939
3.94596
4.85866
5.78671
6.72456
7.65807
8.55766
9.3664
9.98137
10.2343
9.92472
9.22695
0.447974
1.34703
2.25537
3.17897
4.12337
5.0932
6.09123
7.11651
8.16083
9.20167
10.1886
11.0187
11.5012
11.3521
10.4501
0.462626
1.39183
2.33291
3.29389
4.28285
5.30783
6.3764
7.49472
8.6654
9.88241
11.1189
12.2965
13.2059
13.3011
11.2361
0.474504
1.42828
2.39648
3.38917
4.41705
5.49185
6.62657
7.83601
9.13711
10.5488
12.0892
13.7595
15.4747
16.7492
15.2814
0.483039
1.45461
2.4429
3.45979
4.51842
5.6339
6.8244
8.11303
9.53121
11.1251
12.9683
15.1904
18.048
22.1003
28.6197
27.6572
21.1473
17.2877
14.6211
12.5482
10.8144
9.29948
7.93883
6.69295
5.53498
4.44494
3.40685
2.40717
1.43397
0.476284
13.6789
15.5578
14.6573
13.2066
11.7092
10.2813
8.94446
7.69481
6.52199
5.41423
4.35998
3.34835
2.36908
1.4125
0.469349
8.94416
11.8971
12.4077
11.8234
10.8209
9.68431
8.52815
7.39685
6.30536
5.25591
4.24513
3.26715
2.31508
1.3816
0.459293
6.13159
9.93114
10.9173
10.7297
10.0249
9.1001
8.09391
7.07066
6.05906
5.07037
4.1072
3.16775
2.24801
1.34286
0.446623
9.19579
9.91795
10.2411
9.9942
9.38087
8.57173
7.67089
6.73584
5.79639
4.86676
3.95252
3.05445
2.17067
1.29785
0.431845
10.2778
10.1809
9.96002
9.51233
8.8721
8.10637
7.27104
6.40357
5.52648
4.65212
3.78634
2.93102
2.08559
1.24801
0.415433
11.4489
10.529
9.83562
9.16344
8.44979
7.68875
6.89299
6.07753
5.2543
4.4312
3.61266
2.80055
1.99491
1.19462
0.397808
11.978
10.7191
9.69575
8.84268
8.05979
7.29469
6.52814
5.75648
4.98169
4.20683
3.43429
2.6654
1.9004
1.13875
0.379324
12.8352
10.7448
9.43701
8.47258
7.65691
6.90117
6.1664
5.43722
4.70881
3.98058
3.25319
2.52738
1.80345
1.08126
0.360279
12.3741
10.2263
8.93929
7.99867
7.21195
6.49267
5.80042
5.11711
4.43554
3.7535
3.07082
2.38791
1.7052
1.02288
0.340914
9.99409
9.10959
8.20056
7.41746
6.71976
6.06505
5.4279
4.7955
4.16235
3.52667
2.88842
2.24816
1.60657
0.964195
0.321436
8.77064
8.00956
7.37404
6.7766
6.19741
5.62493
5.05181
4.47419
3.8907
3.30146
2.70727
2.10923
1.5084
0.905727
0.30202
6.91891
6.82212
6.52083
6.12281
5.67016
5.18503
4.67862
4.15675
3.62289
3.07952
2.52867
1.97213
1.41143
0.847934
0.28282
5.70738
5.77657
5.73464
5.50678
5.1653
4.7597
4.31598
3.84749
3.36154
2.86263
2.35392
1.83783
1.31635
0.791222
0.263972
3.33816
4.80814
5.07747
4.96956
4.70483
4.36072
3.97042
3.55022
3.10907