/*--------------------------------*- C++ -*----------------------------------*\
| =========                 |                                                 |
| \\      /  F ield         | OpenFOAM: The Open Source CFD Toolbox           |
|  \\    /   O peration     | Version:  5.x                                   |
|   \\  /    A nd           | Web:      www.OpenFOAM.org                      |
|    \\/     M anipulation  |                                                 |
\*---------------------------------------------------------------------------*/
FoamFile
{
    version     2.0;
    format      ascii;
    class       volScalarField;
    location    "0.4";
    object      gradTx;
}
// * * * * * * * * * * * * * * * * * * * * * * * * * * * * * * * * * * * * * //

dimensions      [0 -1 0 1 0 0 0];

internalField   nonuniform List<scalar> 
6300
(
-67.5529
-67.4525
-67.2513
-66.9484
-66.5425
-66.0324
-65.4167
-64.6942
-63.8643
-62.9274
-61.8847
-60.7388
-59.4941
-58.1561
-56.7318
-67.6505
-67.5505
-67.3502
-67.0485
-66.6441
-66.1354
-65.5208
-64.799
-63.969
-63.0309
-61.9856
-60.8357
-59.5855
-58.2406
-56.8085
-67.845
-67.7461
-67.5476
-67.2485
-66.8471
-66.3415
-65.7296
-65.0095
-64.1796
-63.2392
-62.189
-61.0311
-59.7696
-58.4107
-56.9626
-68.1356
-68.0383
-67.8428
-67.5479
-67.1516
-66.6512
-66.044
-65.3271
-64.4981
-63.5551
-62.4979
-61.3279
-60.0492
-58.6684
-57.195
-68.5206
-68.4256
-68.2346
-67.946
-67.5572
-67.0649
-66.4653
-65.7544
-64.928
-63.983
-62.9173
-61.7314
-60.4289
-59.0172
-57.5074
-68.9977
-68.9059
-68.7211
-68.4414
-68.0635
-67.5831
-66.9954
-66.2944
-65.4742
-64.529
-63.4546
-62.2494
-60.9158
-59.4622
-57.9023
-69.5636
-69.476
-69.2997
-69.032
-68.6692
-68.206
-67.6359
-66.951
-66.1427
-65.2019
-64.1205
-62.8934
-61.521
-60.0115
-58.383
-70.2139
-70.1319
-69.9664
-69.7147
-69.3722
-68.9328
-68.3883
-67.7284
-66.9411
-66.0128
-64.9297
-63.6806
-62.261
-60.6779
-58.9544
-70.9431
-70.868
-70.7164
-70.4851
-70.1692
-69.7618
-69.2531
-68.6304
-67.8778
-66.9757
-65.9022
-64.636
-63.1623
-61.4826
-59.6253
-71.744
-71.6774
-71.5427
-71.3368
-71.0547
-70.6889
-70.2287
-69.6595
-68.9611
-68.1072
-67.0647
-65.7961
-64.2671
-62.4628
-60.4125
-72.6083
-72.5516
-72.437
-72.2615
-72.0206
-71.7071
-71.3103
-70.8146
-70.1969
-69.4243
-68.4504
-67.2139
-65.6446
-63.6865
-61.351
-73.5257
-73.4803
-73.3886
-73.2483
-73.0559
-72.8053
-72.4876
-72.0883
-71.5844
-70.9396
-70.0955
-68.9616
-67.4083
-65.2851
-62.5185
-74.4851
-74.452
-74.3853
-74.2838
-74.1457
-73.9673
-73.7431
-73.4629
-73.1094
-72.6507
-72.027
-71.1257
-69.7391
-67.5245
-64.1003
-75.4739
-75.4536
-75.4131
-75.3525
-75.2721
-75.1717
-75.0507
-74.9073
-74.736
-74.523
-74.2327
-73.7719
-72.8949
-70.9707
-66.6302
-76.4793
-76.4717
-76.4572
-76.4374
-76.4147
-76.3928
-76.377
-76.3756
-76.4004
-76.469
-76.6053
-76.8308
-77.0942
-76.8292
-72.2596
-55.3602
-54.0591
-52.7141
-51.3302
-49.9121
-48.4644
-46.9915
-45.4979
-43.9882
-42.4672
-40.94
-39.4121
-37.8893
-36.3774
-34.8823
-33.4095
-31.9646
-30.5525
-29.1777
-27.8443
-26.5558
-25.3152
-24.1253
-22.9879
-21.9049
-20.8773
-19.906
-18.9912
-18.133
-17.3312
-16.5853
-15.8944
-15.2579
-14.6746
-14.1436
-13.6637
-13.2341
-12.8535
-12.5212
-12.2363
-11.998
-11.8057
-11.6588
-11.5569
-11.4999
-11.4876
-11.5201
-11.5977
-11.7208
-11.8899
-12.1057
-12.3689
-12.6803
-13.0407
-13.451
-13.9121
-14.4248
-14.99
-15.6084
-16.2807
-17.0076
-17.7896
-18.627
-19.5202
-20.4692
-21.474
-22.5342
-23.6491
-24.8178
-26.039
-27.3109
-28.6315
-29.9984
-31.4086
-32.8588
-34.3453
-35.8637
-37.4094
-38.9772
-40.5618
-42.1574
-43.758
-45.3574
-46.9492
-48.5267
-50.0832
-51.6115
-53.1043
-54.5545
-55.9551
-55.4292
-54.1211
-52.7692
-51.3786
-49.9541
-48.5001
-47.021
-45.521
-44.0045
-42.4762
-40.9413
-39.4053
-37.8742
-36.354
-34.8508
-33.3705
-31.9185
-30.5
-29.1194
-27.7809
-26.4881
-25.2439
-24.0509
-22.9113
-21.8266
-20.7979
-19.8261
-18.9113
-18.0535
-17.2524
-16.5075
-15.8179
-15.1827
-14.601
-14.0714
-13.5931
-13.1649
-12.7857
-12.4546
-12.1708
-11.9334
-11.7418
-11.5954
-11.4939
-11.437
-11.4246
-11.4568
-11.5338
-11.6561
-11.8243
-12.039
-12.3011
-12.6112
-12.9704
-13.3795
-13.8393
-14.3509
-14.915
-15.5324
-16.2038
-16.9299
-17.7113
-18.5483
-19.4413
-20.3905
-21.3958
-22.4569
-23.5732
-24.7438
-25.9673
-27.2421
-28.5662
-29.9371
-31.3521
-32.8077
-34.3001
-35.8252
-37.3781
-38.9537
-40.5464
-42.1504
-43.7597
-45.3682
-46.9694
-48.5567
-50.1232
-51.6616
-53.1647
-54.6248
-56.0348
-55.5675
-54.245
-52.8791
-51.4751
-50.0378
-48.5716
-47.0803
-45.5676
-44.0377
-42.4949
-40.9444
-39.392
-37.844
-36.3069
-34.7873
-33.2915
-31.8253
-30.3938
-29.0018
-27.6532
-26.3516
-25.1001
-23.9012
-22.757
-21.6691
-20.6384
-19.6656
-18.7508
-17.8939
-17.0944
-16.3516
-15.6646
-15.0323
-14.4536
-13.9272
-13.4519
-13.0266
-12.6501
-12.3215
-12.0399
-11.8044
-11.6143
-11.4691
-11.3683
-11.3116
-11.2989
-11.3303
-11.4062
-11.5269
-11.6932
-11.9058
-12.1655
-12.4732
-12.8298
-13.2364
-13.6937
-14.2029
-14.7647
-15.3801
-16.0497
-16.7743
-17.5544
-18.3906
-19.2832
-20.2326
-21.2388
-22.3017
-23.4206
-24.5948
-25.8231
-27.1037
-28.4347
-29.8138
-31.2381
-32.7044
-34.2089
-35.7474
-37.3149
-38.906
-40.515
-42.1359
-43.7628
-45.3894
-47.0094
-48.6162
-50.2029
-51.7621
-53.2859
-54.7664
-56.1956
-55.7753
-54.4302
-53.0427
-51.6186
-50.1626
-48.6787
-47.17
-45.6392
-44.0895
-42.525
-40.9507
-39.3729
-37.7986
-36.2353
-34.6905
-33.171
-31.6831
-30.2322
-28.8229
-27.4591
-26.1445
-24.8821
-23.6743
-22.5233
-21.4306
-20.3971
-19.4231
-18.5086
-17.6533
-16.8564
-16.117
-15.4341
-14.8064
-14.2325
-13.711
-13.2404
-12.8196
-12.4473
-12.1224
-11.8441
-11.6115
-11.4238
-11.2804
-11.1807
-11.1243
-11.1113
-11.1415
-11.2155
-11.3337
-11.497
-11.7062
-11.9623
-12.2662
-12.619
-13.0216
-13.4752
-13.9807
-14.5391
-15.1513
-15.8181
-16.5403
-17.3184
-18.1531
-19.045
-19.9945
-21.0018
-22.0671
-23.19
-24.3696
-25.6048
-26.8941
-28.2353
-29.6264
-31.0647
-32.5471
-34.0698
-35.6286
-37.2182
-38.833
-40.4667
-42.1132
-43.7662
-45.4199
-47.068
-48.7042
-50.3216
-51.9125
-53.4684
-54.9805
-56.4398
-56.0524
-54.6755
-53.2582
-51.8071
-50.3271
-48.8213
-47.2912
-45.7378
-44.1628
-42.5693
-40.9625
-39.3492
-37.738
-36.138
-34.558
-33.0061
-31.4889
-30.0119
-28.5795
-27.1957
-25.8637
-24.5866
-23.3671
-22.2073
-21.1085
-20.0715
-19.0964
-18.1828
-17.33
-16.5371
-15.8028
-15.1258
-14.5046
-13.9376
-13.4229
-12.959
-12.5443
-12.1776
-11.8578
-11.5841
-11.3554
-11.1711
-11.0302
-10.9321
-10.8764
-10.8627
-10.8913
-10.9625
-11.0772
-11.2362
-11.4407
-11.6918
-11.9905
-12.3379
-12.7352
-13.1834
-13.6839
-14.2375
-14.8455
-15.5084
-16.2273
-17.0025
-17.835
-18.7254
-19.6745
-20.683
-21.7512
-22.8791
-24.0658
-25.3103
-26.6109
-27.9656
-29.3724
-30.8289
-32.3326
-33.8798
-35.4662
-37.0861
-38.7332
-40.4004
-42.0811
-43.769
-45.4582
-47.1435
-48.8189
-50.4779
-52.1125
-53.7131
-55.2696
-56.7711
-56.3983
-54.9781
-53.5212
-52.0363
-50.5283
-48.9985
-47.4457
-45.8675
-44.2629
-42.6334
-40.9839
-39.3232
-37.6621
-36.0127
-34.3862
-32.7922
-31.2379
-29.7285
-28.2677
-26.859
-25.5053
-24.2099
-22.9756
-21.8048
-20.699
-19.6584
-18.6828
-17.7712
-16.9223
-16.1349
-15.4076
-14.7388
-14.1265
-13.5688
-13.0633
-12.6081
-12.2014
-11.8419
-11.5286
-11.2606
-11.0371
-10.8572
-10.7199
-10.6242
-10.5693
-10.5549
-10.5811
-10.6485
-10.7582
-10.9115
-11.1098
-11.3542
-11.6461
-11.9866
-12.3768
-12.8182
-13.312
-13.8595
-14.4619
-15.12
-15.8345
-16.606
-17.4351
-18.3229
-19.2707
-20.2798
-21.3511
-22.4848
-23.6804
-24.9365
-26.2511
-27.6221
-29.0479
-30.5266
-32.0564
-33.6345
-35.2563
-36.9157
-38.6048
-40.3152
-42.0391
-43.7698
-45.5023
-47.2328
-48.9569
-50.6689
-52.3603
-54.0205
-55.6366
-57.1952
-56.8113
-55.332
-53.8236
-52.2979
-50.76
-49.2084
-47.6363
-46.0354
-44.3992
-42.7264
-41.0223
-39.2983
-37.5703
-35.8552
-34.1686
-32.5223
-30.9235
-29.3763
-27.8826
-26.4444
-25.0645
-23.7466
-22.4942
-21.3105
-20.197
-19.1535
-18.1787
-17.2707
-16.4276
-15.6478
-14.9298
-14.2718
-13.6716
-13.1262
-12.6329
-12.1889
-11.7922
-11.4413
-11.1356
-10.8746
-10.6576
-10.4836
-10.3512
-10.2589
-10.2054
-10.1901
-10.213
-10.2752
-10.3781
-10.5236
-10.7137
-10.9498
-11.2333
-11.5651
-11.9465
-12.3789
-12.8642
-13.404
-13.9997
-14.6521
-15.3614
-16.128
-16.9523
-17.8358
-18.7804
-19.7886
-20.8626
-22.0031
-23.2096
-24.48
-25.8114
-27.2014
-28.6484
-30.152
-31.712
-33.3272
-34.9934
-36.7033
-38.4464
-40.2112
-41.9875
-43.768
-45.5495
-47.331
-49.112
-50.8887
-52.6526
-54.3903
-56.0852
-57.7196
-57.2876
-55.7264
-54.1499
-52.576
-51.0108
-49.4472
-47.8682
-46.2538
-44.5883
-42.865
-41.0898
-39.2802
-37.4608
-35.6579
-33.8944
-32.1851
-30.5364
-28.9484
-27.419
-25.9475
-24.5363
-23.1904
-21.9157
-20.7169
-19.5959
-18.5514
-17.5802
-16.6785
-15.8434
-15.0734
-14.3672
-13.7234
-13.1391
-12.6105
-12.1331
-11.7033
-11.3184
-10.9772
-10.6798
-10.4267
-10.2176
-10.0516
-9.92632
-9.83929
-9.7882
-9.77175
-9.79005
-9.84462
-9.93801
-10.0732
-10.2529
-10.4789
-10.7523
-11.0738
-11.4442
-11.8652
-12.3396
-12.8697
-13.4576
-14.1037
-14.8076
-15.5684
-16.3861
-17.2622
-18.2001
-19.2046
-20.2799
-21.4282
-22.6486
-23.9372
-25.289
-26.7001
-28.169
-29.6976
-31.2895
-32.9475
-34.6688
-36.444
-38.2574
-40.0913
-41.9301
-43.7653
-45.5964
-47.4299
-49.2729
-51.1264
-52.9817
-54.8206
-56.6198
-58.3546
-57.8206
-56.1414
-54.4713
-52.8407
-51.2588
-49.7076
-48.1505
-46.546
-44.8606
-43.0785
-41.2077
-39.2771
-37.3284
-35.4053
-33.5432
-31.7621
-30.0636
-28.4379
-26.8737
-25.3654
-23.9157
-22.5335
-21.2297
-20.013
-18.8862
-17.8456
-16.8835
-15.9921
-15.1674
-14.4086
-13.7165
-13.0909
-12.5282
-12.0224
-11.5665
-11.1547
-10.7832
-10.4517
-10.162
-9.91679
-9.71738
-9.56233
-9.44791
-9.36941
-9.32258
-9.30487
-9.31634
-9.35965
-9.43927
-9.56022
-9.72676
-9.94127
-10.2038
-10.5135
-10.8704
-11.2765
-11.7361
-12.2539
-12.8332
-13.4739
-14.1735
-14.9287
-15.7376
-16.6014
-17.5259
-18.5203
-19.5938
-20.7513
-21.991
-23.305
-24.6832
-26.1173
-27.6053
-29.1533
-30.7735
-32.4778
-34.2679
-36.1307
-38.04
-39.9649
-41.8788
-43.7686
-45.6402
-47.5151
-49.4181
-51.3611
-53.3336
-55.307
-57.2458
-59.1149
-58.3993
-56.5416
-54.7347
-53.0347
-51.4619
-49.9763
-48.5013
-46.9551
-45.2723
-43.4205
-41.4124
-39.301
-37.1603
-35.0659
-33.077
-31.2216
-29.4874
-27.8406
-26.2497
-24.7007
-23.1998
-21.7655
-20.4202
-19.1813
-18.0543
-17.0287
-16.0864
-15.2117
-14.3982
-13.6493
-12.9718
-12.3694
-11.8371
-11.3641
-10.9382
-10.5494
-10.1921
-9.86733
-9.58151
-9.34247
-9.15474
-9.01604
-8.91925
-8.85543
-8.81651
-8.79745
-8.79823
-8.82388
-8.88247
-8.98303
-9.13308
-9.33591
-9.58889
-9.88698
-10.2272
-10.6122
-11.0503
-11.5514
-12.122
-12.7609
-13.4611
-14.2136
-15.0116
-15.8549
-16.7529
-17.724
-18.7884
-19.9581
-21.2282
-22.5823
-23.9985
-25.4588
-26.957
-28.5065
-30.1382
-31.8857
-33.7637
-35.7514
-37.8012
-39.8551
-41.8626
-43.7986
-45.6795
-47.5598
-49.5051
-51.5528
-53.6832
-55.8421
-57.9705
-60.0208
-59.0072
-56.8674
-54.843
-53.0444
-51.5392
-50.2295
-48.9552
-47.5614
-45.9279
-43.9887
-41.7665
-39.3685
-36.9271
-34.5758
-32.4201
-30.5085
-28.7869
-27.1647
-25.5674
-23.9686
-22.3898
-20.8713
-19.4592
-18.1902
-17.0782
-16.0938
-15.1937
-14.3446
-13.5378
-12.7888
-12.1207
-11.5487
-11.0621
-10.6394
-10.2581
-9.90018
-9.5557
-9.22842
-8.93516
-8.69571
-8.52294
-8.41085
-8.34453
-8.30704
-8.28327
-8.26288
-8.24577
-8.24209
-8.26664
-8.33598
-8.46482
-8.65977
-8.91044
-9.2012
-9.52106
-9.87322
-10.2752
-10.7501
-11.3142
-11.9615
-12.6751
-13.4345
-14.2224
-15.0314
-15.8764
-16.7953
-17.8336
-19.0218
-20.3467
-21.7719
-23.2522
-24.7476
-26.2365
-27.7431
-29.3379
-31.107
-33.1032
-35.2839
-37.5575
-39.8128
-41.9502
-43.9083
-45.7196
-47.511
-49.4442
-51.6248
-53.9906
-56.42
-58.8061
-61.0976
-59.6151
-57.0256
-54.6248
-52.6307
-51.3338
-50.4311
-49.5804
-48.5129
-47.0243
-44.965
-42.375
-39.4998
-36.5654
-33.8061
-31.4132
-29.5238
-27.9454
-26.4548
-24.8893
-23.2099
-21.4949
-19.8261
-18.2944
-16.9749
-15.9203
-15.0394
-14.2296
-13.4186
-12.5959
-11.8136
-11.1331
-10.6065
-10.197
-9.85675
-9.54592
-9.23322
-8.89608
-8.54206
-8.21285
-7.95445
-7.80524
-7.74124
-7.72978
-7.74035
-7.74665
-7.72505
-7.67539
-7.62111
-7.58777
-7.60473
-7.7028
-7.90486
-8.17578
-8.47501
-8.7699
-9.06396
-9.39678
-9.82223
-10.3882
-11.0682
-11.8249
-12.6161
-13.405
-14.1579
-14.8955
-15.6965
-16.6648
-17.8911
-19.3227
-20.8844
-22.4864
-24.048
-25.4925
-26.8548
-28.2885
-30.003
-32.1786
-34.6843
-37.3416
-39.9415
-42.297
-44.2303
-45.7886
-47.2583
-49.027
-51.4294
-54.2054
-57.0592
-59.7763
-62.3596
-60.1295
-56.9101
-53.8196
-51.212
-50.5605
-50.5584
-50.5184
-50.0713
-48.9434
-46.7067
-43.3954
-39.7178
-35.9533
-32.5103
-29.6834
-28.0934
-26.9795
-25.8552
-24.3776
-22.5045
-20.536
-18.5855
-16.8262
-15.3802
-14.5143
-13.8845
-13.2693
-12.5111
-11.5975
-10.6938
-9.9253
-9.49718
-9.23376
-9.03327
-8.83802
-8.60301
-8.26231
-7.82144
-7.38999
-7.05733
-6.96621
-6.99735
-7.08468
-7.18123
-7.25164
-7.22906
-7.11309
-6.97137
-6.83781
-6.75801
-6.79235
-7.05217
-7.40174
-7.7565
-8.02141
-8.2004
-8.38648
-8.6935
-9.29955
-10.0661
-10.927
-11.803
-12.6412
-13.3083
-13.8256
-14.3589
-15.1264
-16.4669
-18.1135
-19.9412
-21.7808
-23.5196
-24.8691
-25.866
-26.8369
-28.237
-30.7802
-33.8681
-37.2098
-40.4235
-43.2529
-45.0929
-45.9855
-46.575
-47.6972
-50.6951
-54.3072
-57.8941
-60.9375
-63.7118
-60.0265
-56.607
-52.3181
-46.9758
-48.8513
-50.7397
-52.0428
-52.6111
-52.4601
-49.997
-44.9452
-40.0628
-34.8803
-30.3295
-26.1744
-25.9798
-26.031
-25.7672
-24.4378
-21.9394
-19.5533
-17.0723
-14.9088
-12.9521
-12.7705
-12.7107
-12.5168
-11.8295
-10.5869
-9.38079
-8.22909
-8.15233
-8.18156
-8.20384
-8.18899
-8.12658
-7.77436
-7.08874
-6.42629
-5.81376
-5.95244
-6.17397
-6.42768
-6.6612
-6.89201
-6.869
-6.58929
-6.31125
-6.0118
-5.74822
-5.55852
-6.07155
-6.62163
-7.16882
-7.39811
-7.32814
-7.2035
-7.13571
-7.98135
-8.92996
-10.009
-11.0465
-12.1257
-12.6766
-12.7346
-12.6861
-12.7653
-14.6039
-16.6459
-18.9836
-21.2228
-23.5544
-24.7563
-24.9168
-24.7697
-24.8269
-28.5994
-32.6886
-37.264
-41.4603
-45.6351
-47.321
-46.6198
-45.1247
-43.6664
-49.076
-54.4442
-59.5102
-62.4837
-64.4088
-55.9137
-57.5538
-52.3313
-32.3453
-47.1229
-51.7639
-54.6259
-56.1875
-59.3078
-57.017
-46.2533
-40.8419
-32.8998
-27.5809
-16.9644
-23.515
-25.5387
-27.2166
-26.1846
-21.2156
-18.7099
-15.1043
-12.6959
-7.96966
-10.8533
-11.7319
-12.4773
-11.9494
-9.52564
-7.99116
-4.98648
-6.65635
-7.14092
-7.4295
-7.61007
-8.06916
-7.76807
-6.32413
-5.392
-3.48965
-4.8206
-5.30556
-5.80111
-6.14654
-6.89936
-6.88008
-6.06452
-5.68333
-5.13537
-4.63326
-3.31388
-5.03883
-5.84703
-7.04037
-7.20724
-6.53605
-5.94003
-4.26395
-6.51636
-7.60767
-9.15282
-10.232
-12.3733
-12.7568
-11.7992
-10.8317
-7.87245
-12.4503
-14.7551
-18.1705
-20.5348
-25.2189
-26.1461
-24.4134
-22.411
-16.0691
-25.9645
-30.8112
-37.8665
-42.53
-51.603
-52.9878
-48.3982
-43.6218
-29.7457
-47.516
-55.0152
-64.1383
-65.5378
-60.0641
-57.4272
-58.9496
-60.3725
-61.6888
-62.8935
-63.9836
-64.9578
-65.8163
-66.5603
-67.192
-67.7134
-68.1272
-68.4353
-68.6397
-68.7415
-57.5163
-59.0475
-60.4773
-61.7985
-63.0061
-64.0973
-65.0712
-65.9283
-66.6703
-67.2995
-67.8185
-68.23
-68.5363
-68.7394
-68.8406
-57.6962
-59.2452
-60.6889
-62.0197
-63.233
-64.3262
-65.2991
-66.1531
-66.8905
-67.5146
-68.0285
-68.4353
-68.7378
-68.9383
-69.0381
-57.9701
-59.5467
-61.0115
-62.3567
-63.5778
-64.6731
-65.6436
-66.4919
-67.2217
-67.8373
-68.3428
-68.7422
-69.0387
-69.2349
-69.3325
-58.3433
-59.9583
-61.4519
-62.8159
-64.0462
-65.1426
-66.1079
-66.9467
-67.6646
-68.2674
-68.7606
-69.1492
-69.437
-69.6272
-69.7218
-58.8236
-60.4894
-62.0201
-63.4067
-64.6462
-65.7409
-66.6963
-67.52
-68.2201
-68.8045
-69.2805
-69.6541
-69.9301
-70.1122
-70.2027
-59.4222
-61.1539
-62.7305
-64.1424
-65.3888
-66.4759
-67.4139
-68.2143
-68.8886
-69.4475
-69.9001
-70.2538
-70.5144
-70.6859
-70.7711
-60.155
-61.9715
-63.6035
-65.0412
-66.2884
-67.3576
-68.2662
-69.0316
-69.6697
-70.194
-70.6158
-70.9439
-71.1848
-71.3431
-71.4215
-61.0455
-62.9715
-64.6686
-66.1282
-67.3632
-68.3976
-69.259
-69.9732
-70.5612
-71.0399
-71.4224
-71.7184
-71.935
-72.0771
-72.1474
-62.1285
-64.1983
-65.9689
-67.4375
-68.6359
-69.608
-70.3966
-71.038
-71.5589
-71.9789
-72.3123
-72.5693
-72.7569
-72.8797
-72.9405
-63.4564
-65.7223
-67.569
-69.0147
-70.1321
-70.999
-71.6792
-72.2204
-72.6541
-73.001
-73.2753
-73.4864
-73.6404
-73.7413
-73.7912
-65.1099
-67.6628
-69.5671
-70.9176
-71.8755
-72.5728
-73.0983
-73.5074
-73.8325
-74.0924
-74.2983
-74.4574
-74.574
-74.6506
-74.6886
-67.2319
-70.2494
-72.1159
-73.2104
-73.8763
-74.3151
-74.6308
-74.8752
-75.0726
-75.234
-75.3647
-75.4676
-75.5442
-75.5952
-75.6206
-70.2062
-73.9843
-75.4338
-75.929
-76.1006
-76.1767
-76.2316
-76.287
-76.345
-76.4023
-76.4551
-76.5007
-76.5368
-76.5619
-76.5747
-75.9088
-80.0435
-79.7022
-78.9683
-78.4162
-78.0551
-77.8292
-77.6931
-77.6143
-77.5709
-77.549
-77.5397
-77.5371
-77.5374
-77.5381
-77.4043
-77.4077
-77.4158
-77.4311
-77.4579
-77.5028
-77.576
-77.6936
-77.8821
-78.1871
-78.6951
-79.5965
-81.4238
-86.1412
-102.965
-78.2402
-78.2528
-78.2796
-78.3238
-78.3909
-78.4893
-78.6321
-78.8397
-79.1454
-79.6054
-80.3187
-81.4649
-83.3496
-86.1962
-87.2518
-79.0646
-79.0853
-79.1285
-79.1978
-79.2993
-79.4421
-79.6402
-79.9146
-80.2986
-80.8449
-81.6387
-82.8167
-84.6043
-87.4918
-93.9721
-79.8718
-79.8994
-79.9565
-80.0467
-80.1761
-80.3535
-80.5919
-80.9102
-81.3361
-81.9099
-82.6885
-83.7415
-85.0918
-86.2888
-83.5768
-80.657
-80.6903
-80.7586
-80.8655
-81.0165
-81.2193
-81.4849
-81.8279
-82.2679
-82.8298
-83.5443
-84.4562
-85.6823
-87.7967
-94.2933
-81.4162
-81.454
-81.5311
-81.6508
-81.8177
-82.0383
-82.3207
-82.675
-83.1121
-83.6405
-84.2595
-84.9492
-85.6522
-86.2576
-86.6155
-82.1463
-82.1875
-82.2712
-82.4002
-82.5785
-82.8109
-83.1032
-83.4615
-83.89
-84.3849
-84.922
-85.4294
-85.6862
-84.8868
-79.2321
-82.8449
-82.8885
-82.9769
-83.1124
-83.2983
-83.5383
-83.8364
-84.1962
-84.6186
-85.0961
-85.6019
-86.0801
-86.4497
-86.8841
-90.376
-83.5102
-83.5554
-83.6469
-83.7866
-83.9773
-84.2218
-84.5232
-84.8843
-85.3063
-85.7837
-86.2974
-86.8028
-87.1641
-86.7546
-81.5839
-84.1412
-84.1873
-84.2805
-84.4224
-84.6154
-84.8619
-85.1649
-85.5273
-85.9525
-86.4422
-86.995
-87.6223
-88.4096
-89.9279
-96.0863
-84.7371
-84.7835
-84.8772
-85.0196
-85.2128
-85.4591
-85.7614
-86.1236
-86.5514
-87.0526
-87.6371
-88.3276
-89.1434
-89.8751
-88.0751
-85.2977
-85.3439
-85.437
-85.5784
-85.7699
-86.0137
-86.3126
-86.6711
-87.0968
-87.6011
-88.202
-88.9424
-89.9315
-91.5768
-96.2597
-85.8232
-85.8687
-85.9603
-86.0993
-86.2872
-86.5261
-86.8185
-87.1688
-87.5849
-88.0784
-88.6662
-89.3813
-90.2598
-91.1656
-90.3462
-86.314
-86.3584
-86.4477
-86.583
-86.7657
-86.9974
-87.2802
-87.6178
-88.0167
-88.4861
-89.0382
-89.7036
-90.5651
-91.9488
-95.5982
-86.7708
-86.8138
-86.9001
-87.0307
-87.2067
-87.4293
-87.6998
-88.021
-88.397
-88.8322
-89.3279
-89.8865
-90.5037
-91.1551
-91.7462
-87.1947
-87.2359
-87.3187
-87.4438
-87.612
-87.8239
-88.0805
-88.383
-88.7335
-89.1321
-89.5703
-90.0254
-90.4146
-90.3998
-88.3525
-87.5868
-87.6261
-87.7049
-87.8238
-87.9833
-88.1837
-88.4253
-88.7085
-89.0341
-89.4004
-89.7974
-90.207
-90.602
-91.0525
-92.747
-87.9486
-87.9857
-88.0602
-88.1725
-88.3228
-88.5111
-88.7373
-89.0013
-89.3038
-89.6434
-90.012
-90.3956
-90.747
-90.8379
-89.2038
-88.2813
-88.3162
-88.3862
-88.4916
-88.6324
-88.8083
-89.019
-89.2643
-89.5452
-89.862
-90.2128
-90.6034
-91.0689
-91.818
-94.2333
-88.5866
-88.6193
-88.6847
-88.783
-88.9141
-89.0775
-89.2727
-89.4996
-89.7592
-90.0531
-90.3822
-90.7561
-91.1902
-91.6379
-91.327
-88.8661
-88.8965
-88.9572
-89.0484
-89.1698
-89.3208
-89.5007
-89.7089
-89.9467
-90.2156
-90.5171
-90.864
-91.2982
-91.9813
-93.7324
-89.1214
-89.1494
-89.2056
-89.2897
-89.4016
-89.5403
-89.7049
-89.8947
-90.1102
-90.3516
-90.6169
-90.9082
-91.2295
-91.5801
-91.9197
-89.354
-89.3798
-89.4314
-89.5087
-89.6112
-89.738
-89.8878
-90.0596
-90.2531
-90.4669
-90.6951
-90.9288
-91.1369
-91.1833
-90.3892
-89.5655
-89.5891
-89.6364
-89.707
-89.8005
-89.9159
-90.0516
-90.2064
-90.3793
-90.5683
-90.766
-90.9641
-91.1529
-91.3672
-92.1049
-89.7574
-89.779
-89.822
-89.8863
-89.9713
-90.0758
-90.1984
-90.3374
-90.492
-90.6598
-90.8332
-91.003
-91.1475
-91.1846
-90.6274
-89.9313
-89.9508
-89.9899
-90.0482
-90.1251
-90.2195
-90.3298
-90.4546
-90.5931
-90.7435
-90.8995
-91.0565
-91.213
-91.4117
-92.0885
-90.0884
-90.106
-90.1413
-90.194
-90.2633
-90.3483
-90.4474
-90.5593
-90.6836
-90.8193
-90.9617
-91.1076
-91.2456
-91.3039
-90.7854
-90.2301
-90.246
-90.2777
-90.325
-90.3873
-90.4635
-90.5522
-90.6523
-90.7638
-90.8865
-91.018
-91.1613
-91.3299
-91.5938
-92.4099
-90.3576
-90.3718
-90.4003
-90.4426
-90.4984
-90.5664
-90.6454
-90.7344
-90.8338
-90.9438
-91.0629
-91.1946
-91.3446
-91.4972
-91.4038
-90.472
-90.4848
-90.5101
-90.5479
-90.5975
-90.6579
-90.7278
-90.8064
-90.8939
-90.9909
-91.0957
-91.2124
-91.3541
-91.5685
-92.1074
-90.5746
-90.5859
-90.6084
-90.6418
-90.6857
-90.739
-90.8005
-90.8691
-90.9452
-91.0286
-91.1168
-91.2102
-91.3095
-91.4117
-91.5002
-90.6662
-90.6761
-90.696
-90.7255
-90.7641
-90.8109
-90.8644
-90.9237
-90.9889
-91.0593
-91.1311
-91.2012
-91.2593
-91.2614
-90.9992
-90.7478
-90.7565
-90.7739
-90.7998
-90.8336
-90.8742
-90.9205
-90.9713
-91.0265
-91.0853
-91.1433
-91.1976
-91.2445
-91.2918
-91.4865
-90.8202
-90.8278
-90.843
-90.8656
-90.8949
-90.9301
-90.9697
-91.0129
-91.0593
-91.1081
-91.1549
-91.1965
-91.2258
-91.2171
-91.0274
-90.8842
-90.8908
-90.904
-90.9235
-90.9489
-90.9791
-91.0129
-91.0492
-91.088
-91.1285
-91.1668
-91.201
-91.2303
-91.265
-91.43
-90.9405
-90.9462
-90.9576
-90.9745
-90.9962
-91.022
-91.0505
-91.0809
-91.1131
-91.1467
-91.1782
-91.2064
-91.2274
-91.2196
-91.0423
-90.9898
-90.9947
-91.0045
-91.0189
-91.0375
-91.0594
-91.0832
-91.1084
-91.1348
-91.1626
-91.1887
-91.2138
-91.2412
-91.2889
-91.484
-91.0326
-91.0368
-91.0451
-91.0574
-91.0732
-91.0916
-91.1114
-91.1319
-91.1534
-91.1759
-91.1968
-91.2169
-91.2375
-91.253
-91.1969
-91.0694
-91.073
-91.0801
-91.0905
-91.1039
-91.1192
-91.1355
-91.1519
-91.1689
-91.1864
-91.2022
-91.217
-91.234
-91.2641
-91.3718
-91.1007
-91.1037
-91.1097
-91.1186
-91.1298
-91.1426
-91.1557
-91.1686
-91.1815
-91.1945
-91.2049
-91.2127
-91.2179
-91.2183
-91.2083
-91.1268
-91.1294
-91.1345
-91.142
-91.1515
-91.162
-91.1725
-91.1824
-91.1918
-91.2008
-91.2063
-91.2075
-91.2018
-91.1769
-91.0816
-91.1481
-91.1503
-91.1547
-91.1611
-91.1691
-91.1778
-91.1861
-91.1935
-91.2
-91.2057
-91.2074
-91.2043
-91.1957
-91.1817
-91.1951
-91.1648
-91.1667
-91.1705
-91.176
-91.1829
-91.1902
-91.1968
-91.2022
-91.2065
-91.2096
-91.2085
-91.2024
-91.1898
-91.1645
-91.099
-91.1771
-91.1788
-91.1822
-91.1871
-91.1931
-91.1993
-91.2048
-91.2088
-91.2115
-91.2128
-91.2099
-91.2021
-91.1894
-91.1724
-91.1725
-91.1851
-91.1867
-91.1898
-91.1944
-91.1998
-91.2055
-91.2102
-91.2132
-91.215
-91.2153
-91.2113
-91.2026
-91.1885
-91.1654
-91.1186
-91.1891
-91.1906
-91.1936
-91.198
-91.2032
-91.2086
-91.213
-91.2158
-91.2171
-91.2171
-91.2129
-91.204
-91.1906
-91.1721
-91.1582
-91.1889
-91.1904
-91.1935
-91.1979
-91.2033
-91.2088
-91.2134
-91.2163
-91.2179
-91.2182
-91.2143
-91.2059
-91.1927
-91.1728
-91.1495
-91.1846
-91.1863
-91.1895
-91.1943
-91.2001
-91.206
-91.2112
-91.2148
-91.2173
-91.2185
-91.2157
-91.2085
-91.1959
-91.1732
-91.1279
-91.1761
-91.178
-91.1816
-91.1869
-91.1934
-91.2002
-91.2064
-91.2113
-91.2151
-91.2179
-91.2169
-91.212
-91.2027
-91.1864
-91.1589
-91.1633
-91.1654
-91.1696
-91.1756
-91.1832
-91.1913
-91.199
-91.2055
-91.2112
-91.2162
-91.2177
-91.2158
-91.211
-91.2044
-91.2145
-91.146
-91.1485
-91.1533
-91.1604
-91.1692
-91.179
-91.1886
-91.1974
-91.2055
-91.2132
-91.2176
-91.2189
-91.2172
-91.2081
-91.1652
-91.124
-91.1268
-91.1325
-91.1409
-91.1514
-91.1633
-91.1753
-91.1867
-91.1979
-91.2087
-91.2164
-91.2214
-91.225
-91.2324
-91.2854
-91.0969
-91.1003
-91.107
-91.1169
-91.1294
-91.1437
-91.1587
-91.1734
-91.1881
-91.2026
-91.214
-91.222
-91.2267
-91.2223
-91.1612
-91.0644
-91.0684
-91.0763
-91.088
-91.1029
-91.1202
-91.1385
-91.1572
-91.1761
-91.195
-91.2106
-91.2223
-91.2314
-91.2487
-91.3633
-91.0261
-91.0308
-91.0401
-91.0538
-91.0715
-91.0922
-91.1145
-91.1378
-91.1618
-91.186
-91.2066
-91.2217
-91.227
-91.2046
-91.0573
-90.9815
-90.9869
-90.9978
-91.014
-91.0348
-91.0593
-91.0863
-91.1149
-91.1449
-91.1757
-91.2032
-91.2251
-91.2383
-91.2444
-91.3244
-90.93
-90.9363
-90.949
-90.9678
-90.9922
-91.0211
-91.0534
-91.0881
-91.1252
-91.1639
-91.2004
-91.2319
-91.251
-91.2302
-91.0515
-90.871
-90.8783
-90.893
-90.9148
-90.9431
-90.9769
-91.0151
-91.0568
-91.1019
-91.15
-91.1979
-91.2446
-91.288
-91.3228
-91.3379
-90.8038
-90.8123
-90.8291
-90.8541
-90.8868
-90.9261
-90.9708
-91.0201
-91.074
-91.1326
-91.1931
-91.2566
-91.3276
-91.4263
-91.6788
-90.7277
-90.7373
-90.7566
-90.7852
-90.8226
-90.8678
-90.9197
-90.9772
-91.0406
-91.1099
-91.1829
-91.2607
-91.3446
-91.4202
-91.3477
-90.6418
-90.6527
-90.6746
-90.7071
-90.7496
-90.8013
-90.8609
-90.9273
-91.0007
-91.0811
-91.1661
-91.2579
-91.3637
-91.514
-91.902
-90.5452
-90.5576
-90.5822
-90.6189
-90.6671
-90.7257
-90.7936
-90.8695
-90.9535
-91.0451
-91.1413
-91.2424
-91.3487
-91.4398
-91.3049
-90.437
-90.4508
-90.4785
-90.5197
-90.5739
-90.6401
-90.7169
-90.8032
-90.8987
-91.0023
-91.1099
-91.2207
-91.3405
-91.5197
-92.1237
-90.316
-90.3315
-90.3623
-90.4083
-90.469
-90.5433
-90.6299
-90.7276
-90.8358
-90.9528
-91.0729
-91.1898
-91.2878
-91.3017
-90.8404
-90.1812
-90.1984
-90.2326
-90.2838
-90.3514
-90.4344
-90.5315
-90.6417
-90.7643
-90.8975
-91.0349
-91.1692
-91.2898
-91.4109
-91.8478
-90.0315
-90.0504
-90.0882
-90.1448
-90.2196
-90.3119
-90.4204
-90.5442
-90.683
-90.8355
-90.9957
-91.1551
-91.2881
-91.2976
-90.7369
-89.8654
-89.8862
-89.9278
-89.99
-90.0725
-90.1745
-90.2949
-90.4332
-90.5896
-90.7642
-90.9537
-91.1565
-91.3686
-91.5774
-91.7484
-89.6818
-89.7045
-89.75
-89.818
-89.9084
-90.0204
-90.1532
-90.3065
-90.4812
-90.6788
-90.8991
-91.1487
-91.4476
-91.8805
-92.9238
-89.4793
-89.504
-89.5534
-89.6275
-89.726
-89.8483
-89.9936
-90.1619
-90.3545
-90.5737
-90.8209
-91.1037
-91.4301
-91.7566
-91.5766
-89.2566
-89.2833
-89.3368
-89.417
-89.5237
-89.6563
-89.8142
-89.9973
-90.2069
-90.4453
-90.7145
-91.0255
-91.4088
-91.9816
-93.4425
-89.0122
-89.0409
-89.0985
-89.1849
-89.3
-89.4431
-89.6136
-89.8112
-90.0368
-90.2917
-90.5756
-90.8941
-91.2524
-91.5867
-91.1537
-88.7446
-88.7755
-88.8372
-88.9299
-89.0533
-89.2071
-89.3903
-89.6025
-89.8438
-90.1139
-90.4092
-90.7321
-91.109
-91.7215
-93.8252
-88.4526
-88.4855
-88.5514
-88.6503
-88.7823
-88.9469
-89.1431
-89.3705
-89.6285
-89.9146
-90.2201
-90.5297
-90.7982
-90.8177
-89.2725
-88.1346
-88.1696
-88.2395
-88.3448
-88.4853
-88.6608
-88.8706
-89.1141
-89.3909
-89.6981
-90.0246
-90.3527
-90.6565
-90.9971
-92.4246
-87.7893
-87.8262
-87.9002
-88.0116
-88.1606
-88.3471
-88.5707
-88.8315
-89.1298
-89.464
-89.8245
-90.1895
-90.4855
-90.4184
-88.5714
-87.4152
-87.4541
-87.5319
-87.6493
-87.8065
-88.0038
-88.2413
-88.5197
-88.8412
-89.2076
-89.6176
-90.0711
-90.5629
-91.0724
-91.5257
-87.0111
-87.0517
-87.1332
-87.2562
-87.4213
-87.6288
-87.8795
-88.1749
-88.5189
-88.917
-89.377
-89.9228
-90.6241
-91.7619
-94.8418
-86.5758
-86.618
-86.7028
-86.8309
-87.0031
-87.2201
-87.4828
-87.7934
-88.1564
-88.5793
-89.0733
-89.6635
-90.3781
-91.0994
-90.3341
-86.108
-86.1516
-86.2393
-86.3719
-86.5504
-86.7758
-87.049
-87.3723
-87.7497
-88.1882
-88.6991
-89.3148
-90.1234
-91.4658
-95.3515
-85.607
-85.6517
-85.7417
-85.878
-86.0618
-86.2944
-86.5768
-86.9105
-87.2981
-87.7428
-88.2484
-88.8288
-89.4942
-90.0625
-88.4778
-85.0719
-85.1173
-85.2089
-85.348
-85.5361
-85.7748
-86.0652
-86.4081
-86.8042
-87.2512
-87.7423
-88.2805
-88.9283
-90.151
-95.1867
-84.5023
-84.548
-84.6403
-84.7809
-84.972
-85.2155
-85.5132
-85.8659
-86.2724
-86.7248
-87.2001
-87.6528
-87.9592
-87.588
-83.2346
-83.8981
-83.9434
-84.0353
-84.1759
-84.3681
-84.6149
-84.9193
-85.2833
-85.7062
-86.1784
-86.6699
-87.1235
-87.4567
-87.7868
-90.51
-83.2594
-83.3037
-83.3937
-83.5322
-83.723
-83.9707
-84.2803
-84.6568
-85.1034
-85.6147
-86.1624
-86.6749
-86.9524
-86.3202
-81.7267
-82.587
-82.6293
-82.7156
-82.8493
-83.0352
-83.2798
-83.5911
-83.9788
-84.4534
-85.0216
-85.6759
-86.3863
-87.0759
-87.6012
-87.794
-81.8825
-81.9217
-82.0019
-82.1272
-82.3035
-82.5391
-82.8453
-83.2374
-83.736
-84.3649
-85.1469
-86.109
-87.3096
-89.1097
-94.0399
-81.148
-81.1827
-81.2542
-81.3669
-81.5275
-81.7459
-82.0362
-82.4193
-82.9258
-83.598
-84.4894
-85.663
-87.1232
-88.4407
-86.5654
-80.3867
-80.4155
-80.4753
-80.5705
-80.7083
-80.8992
-81.1592
-81.5127
-81.9983
-82.6751
-83.6327
-85.0151
-87.0318
-89.9856
-95.0201
-79.6026
-79.6241
-79.6692
-79.7419
-79.8492
-80.0013
-80.2138
-80.5118
-80.9361
-81.5534
-82.4777
-83.9239
-86.286
-90.0822
-93.9206
-78.801
-78.8138
-78.8412
-78.8867
-78.9561
-79.058
-79.2057
-79.4206
-79.7376
-80.215
-80.9572
-82.1938
-84.5404
-90.1467
-108.62
-108.25
-89.6972
-83.9709
-81.585
-80.3594
-79.6491
-79.2087
-78.9263
-78.7414
-78.6186
-78.5366
-78.4826
-78.4481
-78.4279
-78.4186
-94.3768
-89.5623
-85.5288
-83.1558
-81.765
-80.9073
-80.3509
-79.9773
-79.7199
-79.5395
-79.4123
-79.3235
-79.264
-79.2274
-79.21
-94.0245
-88.8818
-85.9303
-84.0418
-82.7971
-81.953
-81.3641
-80.945
-80.6419
-80.4203
-80.2582
-80.1416
-80.0613
-80.011
-79.9868
-87.147
-86.6761
-85.5901
-84.4781
-83.5476
-82.818
-82.2572
-81.8296
-81.5041
-81.2564
-81.0696
-80.9319
-80.8353
-80.7739
-80.7441
-80.6389
-84.8937
-85.2648
-84.7855
-84.1551
-83.5622
-83.0553
-82.6407
-82.3088
-82.0468
-81.8437
-81.691
-81.5821
-81.5122
-81.478
-88.3209
-85.8049
-85.5266
-85.195
-84.733
-84.243
-83.7871
-83.3917
-83.0616
-82.7929
-82.5798
-82.4168
-82.2991
-82.2229
-82.1855
-80.692
-85.1585
-85.8219
-85.6921
-85.3268
-84.8964
-84.4743
-84.0945
-83.7684
-83.4969
-83.278
-83.1083
-82.9846
-82.904
-82.8642
-90.6236
-87.1494
-86.6646
-86.3499
-85.9619
-85.5403
-85.1297
-84.7573
-84.4336
-84.161
-83.9387
-83.7649
-83.6374
-83.5538
-83.5125
-82.3955
-87.0604
-87.3856
-87.0554
-86.6167
-86.1728
-85.7562