/*--------------------------------*- C++ -*----------------------------------*\
| =========                 |                                                 |
| \\      /  F ield         | OpenFOAM: The Open Source CFD Toolbox           |
|  \\    /   O peration     | Version:  5.x                                   |
|   \\  /    A nd           | Web:      www.OpenFOAM.org                      |
|    \\/     M anipulation  |                                                 |
\*---------------------------------------------------------------------------*/
FoamFile
{
    version     2.0;
    format      ascii;
    class       volScalarField;
    location    "3.6";
    object      gradTy;
}
// * * * * * * * * * * * * * * * * * * * * * * * * * * * * * * * * * * * * * //

dimensions      [0 -1 0 1 0 0 0];

internalField   nonuniform List<scalar> 
6300
(
32275.8
32227.3
32178.9
32130.6
32082.3
32034.1
31986
31938.1
31890.3
31842.7
31795.3
31748.2
31701.2
31654.6
31608.1
-0.015801
-0.0474703
-0.0793282
-0.111459
-0.143879
-0.176512
-0.209168
-0.24153
-0.273157
-0.303505
-0.331994
-0.3581
-0.381488
-0.402165
-0.420601
-0.026257
-0.0789025
-0.131911
-0.185447
-0.239565
-0.294166
-0.348946
-0.403376
-0.456689
-0.507917
-0.555981
-0.599861
-0.638836
-0.672775
-0.702409
-0.0365873
-0.109973
-0.183958
-0.25884
-0.334757
-0.411623
-0.489055
-0.566316
-0.642282
-0.715464
-0.784121
-0.846493
-0.901184
-0.947654
-0.986741
-0.0467087
-0.140446
-0.235112
-0.3312
-0.429003
-0.528518
-0.629339
-0.730555
-0.830662
-0.927541
-1.01855
-1.10081
-1.17176
-1.22993
-1.27592
-0.056503
-0.169981
-0.284832
-0.401831
-0.52152
-0.644085
-0.769204
-0.895877
-1.02224
-1.14546
-1.26169
-1.36641
-1.45506
-1.52433
-1.57381
-0.0658247
-0.198138
-0.332399
-0.469766
-0.611153
-0.757088
-0.907506
-1.06149
-1.21696
-1.37034
-1.51633
-1.64804
-1.75771
-1.83848
-1.88733
-0.0744831
-0.224345
-0.376859
-0.533676
-0.696234
-0.8656
-1.04223
-1.22561
-1.41375
-1.60258
-1.78523
-1.95169
-2.08922
-2.18453
-2.22861
-0.0822456
-0.247897
-0.417011
-0.591838
-0.774496
-0.966836
-1.17019
-1.38494
-1.60984
-1.84096
-2.07028
-2.28424
-2.46287
-2.58173
-2.61899
-0.0888471
-0.26798
-0.451444
-0.642159
-0.843064
-1.05704
-1.28673
-1.5341
-1.79968
-2.08108
-2.37066
-2.65202
-2.89622
-3.06041
-3.09622
-0.0940075
-0.283729
-0.478617
-0.682277
-0.898541
-1.13152
-1.38556
-1.66503
-1.97366
-2.31298
-2.67916
-3.0569
-3.40949
-3.66735
-3.72831
-0.0974599
-0.294304
-0.497008
-0.709777
-0.937288
-1.18491
-1.45893
-1.76677
-2.11688
-2.51795
-2.97604
-3.48682
-4.01739
-4.47109
-4.64389
-0.0989862
-0.299013
-0.505322
-0.722521
-0.955906
-1.21187
-1.49846
-1.8262
-2.20909
-2.66583
-3.22015
-3.89685
-4.70206
-5.55566
-6.11094
-0.098456
-0.297432
-0.502735
-0.719065
-0.951925
-1.20817
-1.49682
-1.83042
-2.22739
-2.71605
-3.34179
-4.17831
-5.33827
-6.93852
-8.7505
-0.0958595
-0.289516
-0.489112
-0.69906
-0.924541
-1.17204
-1.45018
-1.77123
-2.15392
-2.62911
-3.25257
-4.13625
-5.53421
-8.10968
-13.8768
31565.9
31527.6
31489.6
31451.7
31414.1
31376.8
31339.6
31302.7
31266.1
31229.8
31193.8
31158.1
31122.7
31087.6
31052.9
31018.6
30984.6
30951
30917.7
30884.9
30852.4
30820.3
30788.5
30757.1
30726.1
30695.3
30664.9
30634.7
30604.9
30575.3
30545.9
30516.8
30487.9
30459.2
30430.6
30402.3
30374.1
30346
30318.1
30290.3
30262.6
30235.1
30207.6
30180.3
30153.1
30125.9
30098.9
30071.9
30045
30018.2
29991.5
29964.8
29938.2
29911.6
29885.1
29858.5
29832
29805.4
29778.9
29752.3
29725.6
29699
29672.2
29645.4
29618.5
29591.5
29564.4
29537.2
29509.9
29482.5
29455
29427.3
29399.6
29371.6
29343.6
29315.3
29286.9
29258.4
29229.7
29200.8
29171.7
29142.5
29113
29083.4
29053.5
29023.4
28993.2
28962.7
28932
28901.1
-0.43635
-0.450725
-0.466121
-0.483498
-0.503659
-0.527102
-0.553907
-0.58369
-0.615634
-0.648594
-0.681255
-0.712306
-0.740586
-0.765175
-0.785425
-0.800924
-0.811427
-0.81679
-0.816925
-0.811797
-0.801452
-0.786055
-0.765923
-0.741527
-0.71347
-0.682441
-0.649177
-0.614422
-0.578908
-0.543344
-0.5084
-0.474679
-0.442687
-0.412798
-0.385239
-0.360104
-0.337383
-0.317009
-0.298892
-0.282937
-0.269019
-0.256944
-0.246402
-0.236935
-0.227943
-0.218731
-0.208587
-0.196874
-0.183113
-0.167036
-0.148596
-0.127946
-0.105393
-0.0813437
-0.0562589
-0.0306258
-0.00493193
0.0203589
0.044839
0.0681941
0.0902337
0.110904
0.130273
0.148489
0.165728
0.182148
0.197859
0.212928
0.227407
0.241363
0.254907
0.268188
0.281373
0.2946
0.307947
0.321413
0.334929
0.348392
0.361702
0.374786
0.387591
0.400054
0.412052
0.423347
0.433568
0.442219
0.448722
0.452489
0.452987
0.449808
-0.72721
-0.749652
-0.773801
-0.8015
-0.834323
-0.873277
-0.918573
-0.96952
-1.02459
-1.08162
-1.13816
-1.19177
-1.24038
-1.28241
-1.31683
-1.34307
-1.36082
-1.36991
-1.3702
-1.36159
-1.34409
-1.31794
-1.28365
-1.24204
-1.19418
-1.14131
-1.08469
-1.0256
-0.965292
-0.904962
-0.845769
-0.788775
-0.734869
-0.684698
-0.638628
-0.59676
-0.559009
-0.525204
-0.495177
-0.468798
-0.445924
-0.426309
-0.409482
-0.394669
-0.380798
-0.366587
-0.350701
-0.33195
-0.309453
-0.282739
-0.251769
-0.216873
-0.178644
-0.137828
-0.0952473
-0.0517501
-0.00818971
0.0346098
0.0759105
0.115139
0.15196
0.186307
0.218356
0.248439
0.276927
0.304121
0.330201
0.355239
0.379265
0.402357
0.424699
0.446583
0.468345
0.490277
0.512533
0.535096
0.557797
0.580407
0.602721
0.624623
0.646083
0.667077
0.687471
0.706912
0.724765
0.740128
0.751929
0.759064
0.760551
0.755656
-1.01815
-1.04604
-1.07629
-1.11204
-1.15607
-1.21023
-1.275
-1.34932
-1.43061
-1.51526
-1.59916
-1.67833
-1.74953
-1.81049
-1.85992
-1.89733
-1.92257
-1.93559
-1.93618
-1.92406
-1.89908
-1.86142
-1.81177
-1.75141
-1.68199
-1.60542
-1.52362
-1.43841
-1.35156
-1.2648
-1.17983
-1.09828
-1.02153
-0.95055
-0.885821
-0.827343
-0.774806
-0.727811
-0.686066
-0.649464
-0.617993
-0.591517
-0.569516
-0.550904
-0.534004
-0.516714
-0.496804
-0.472287
-0.44173
-0.404439
-0.360467
-0.310472
-0.255491
-0.19673
-0.135432
-0.0728446
-0.0102325
0.0511363
0.110081
0.165665
0.21736
0.265128
0.309378
0.350794
0.390091
0.427798
0.464144
0.499104
0.532564
0.564525
0.595245
0.625242
0.655162
0.685573
0.716765
0.748661
0.78088
0.812927
0.844408
0.875174
0.90532
0.935031
0.964329
0.992829
1.01961
1.04323
1.06191
1.07384
1.07738
1.07134
-1.31006
-1.33909
-1.37089
-1.4107
-1.46327
-1.53195
-1.61777
-1.71912
-1.83188
-1.95008
-2.06703
-2.17648
-2.27355
-2.35527
-2.42046
-2.46922
-2.50208
-2.5193
-2.5206
-2.50523
-2.47251
-2.42232
-2.35554
-2.27401
-2.18032
-2.07731
-1.96767
-1.85382
-1.73797
-1.62232
-1.50924
-1.40115
-1.30016
-1.2077
-1.12432
-1.04969
-0.98295
-0.923193
-0.869894
-0.823097
-0.783235
-0.750657
-0.725056
-0.705066
-0.688176
-0.671022
-0.649959
-0.621746
-0.584138
-0.5362
-0.478284
-0.411701
-0.338239
-0.259746
-0.177938
-0.0944423
-0.0109552
0.0706818
0.148617
0.221319
0.287942
0.348543
0.40401
0.45573
0.50508
0.552973
0.599626
0.644676
0.687572
0.728039
0.766398
0.803582
0.840852
0.879335
0.919581
0.961366
1.00383
1.04589
1.08676
1.12626
1.16484
1.20325
1.24202
1.28092
1.31871
1.35314
1.38137
1.40044
1.40779
1.40158
-1.60481
-1.62806
-1.6539
-1.6909
-1.74724
-1.8289
-1.93809
-2.07245
-2.22523
-2.38663
-2.54565
-2.69237
-2.8196
-2.92376
-3.00459
-3.06394
-3.10402
-3.12589
-3.12896
-3.11133
-3.07101
-3.00707
-2.92047
-2.81407
-2.69201
-2.55866
-2.41774
-2.27208
-2.12401
-1.97607
-1.83143
-1.69376
-1.56644
-1.45174
-1.35018
-1.26063
-1.181
-1.10924
-1.04433
-0.986717
-0.937968
-0.899733
-0.872506
-0.854756
-0.842726
-0.830962
-0.813413
-0.784742
-0.741432
-0.682345
-0.608603
-0.52286
-0.428259
-0.327569
-0.222911
-0.116065
-0.00905465
0.0955141
0.194644
0.285676
0.367147
0.439296
0.503986
0.564021
0.622111
0.679874
0.737356
0.793292
0.846017
0.894529
0.939184
0.98174
1.02474
1.0705
1.12012
1.17304
1.2273
1.28052
1.33104
1.37863
1.42457
1.47091
1.51946
1.57058
1.62261
1.67197
1.71396
1.74386
1.75768
1.7527
-1.9066
-1.91328
-1.92078
-1.94318
-1.99466
-2.08613
-2.22211
-2.39914
-2.60611
-2.82649
-3.0419
-3.23623
-3.39878
-3.52575
-3.61956
-3.68633
-3.73206
-3.75948
-3.76701
-3.75
-3.7034
-3.62434
-3.5138
-3.37657
-3.21985
-3.0508
-2.87451
-2.69368
-2.50975
-2.32494
-2.14347
-1.97131
-1.81445
-1.67673
-1.5586
-1.45717
-1.3676
-1.2853
-1.20813
-1.13744
-1.07743
-1.03282
-1.00618
-0.996081
-0.99676
-0.999103
-0.992749
-0.968688
-0.921312
-0.84946
-0.756071
-0.646645
-0.526917
-0.400978
-0.270906
-0.137802
-0.00351234
0.128303
0.252456
0.363927
0.459899
0.540912
0.610786
0.675234
0.739733
0.8073
0.87743
0.946651
1.01065
1.06669
1.11511
1.15937
1.20476
1.2562
1.31603
1.3829
1.45236
1.51913
1.57963
1.63351
1.68379
1.73549
1.79328
1.85902
1.93046
2.00148
2.06406
2.1105
2.13475
2.13292
-2.22392
-2.19722
-2.16609
-2.15348
-2.18436
-2.27911
-2.44684
-2.68257
-2.96751
-3.27334
-3.56831
-3.82565
-4.02898
-4.17526
-4.27325
-4.33875
-4.3862
-4.42142
-4.44013
-4.431
-4.38221
-4.28664
-4.14523
-3.96679
-3.76509
-3.55299
-3.33747
-3.11935
-2.89636
-2.66862
-2.44168
-2.2264
-2.03446
-1.87306
-1.74252
-1.63614
-1.54326
-1.45349
-1.36208
-1.27226
-1.19418
-1.13952
-1.11546
-1.12134
-1.14784
-1.1792
-1.19701
-1.18563
-1.13585
-1.04699
-0.926024
-0.784651
-0.633903
-0.479717
-0.322649
-0.160621
0.00621735
0.172755
0.329161
0.465128
0.574823
0.659199
0.726027
0.787004
0.85356
0.931657
1.01943
1.10815
1.18733
1.25043
1.29762
1.33599
1.37665
1.4304
1.50238
1.58956
1.68184
1.76731
1.83826
1.89405
1.94149
1.9918
2.0561
2.13972
2.23932
2.34355
2.43781
2.50946
2.54973
2.55363
-2.57342
-2.48741
-2.38456
-2.30098
-2.28185
-2.36678
-2.57336
-2.89482
-3.29853
-3.73547
-4.14857
-4.49248
-4.74093
-4.89388
-4.97326
-5.01669
-5.05748
-5.10659
-5.15279
-5.16854
-5.12782
-5.01432
-4.82935
-4.58984
-4.32462
-4.05937
-3.80341
-3.55124
-3.28903
-3.01032
-2.72225
-2.44701
-2.20957
-2.02404
-1.89068
-1.79472
-1.71343
-1.62302
-1.51271
-1.38912
-1.27607
-1.20104
-1.18047
-1.21573
-1.29073
-1.3776
-1.44207
-1.45659
-1.40537
-1.28944
-1.12404
-0.934815
-0.744483
-0.561241
-0.380156
-0.188986
0.0177692
0.233189
0.436701
0.605564
0.727617
0.804163
0.8511
0.892145
0.952171
1.04347
1.16145
1.28477
1.38853
1.45844
1.49416
1.51062
1.53098
1.57967
1.66809
1.79014
1.92235
2.0376
2.11986
2.16777
2.19617
2.22902
2.29217
2.3984
2.54251
2.70091
2.84498
2.95446
3.01785
3.03089
-2.98698
-2.80168
-2.57509
-2.3555
-2.22926
-2.27903
-2.53418
-2.98833
-3.58134
-4.23159
-4.82808
-5.29638
-5.58996
-5.718
-5.72456
-5.69794
-5.71621
-5.7954
-5.90868
-5.9868
-5.97755
-5.84428
-5.5913
-5.24918
-4.8834
-4.55158
-4.26307
-3.9967
-3.70459
-3.36458
-2.98339
-2.61222
-2.30891
-2.09886
-1.98392
-1.93106
-1.89562
-1.82007
-1.68129
-1.48959
-1.302
-1.18287
-1.1638
-1.25157
-1.41515
-1.60691
-1.75768
-1.82081
-1.76666
-1.60168
-1.35491
-1.08507
-0.843326
-0.638111
-0.450624
-0.238223
0.0184241
0.312356
0.595728
0.815007
0.947552
0.993379
0.98627
0.971567
1.00736
1.11848
1.2974
1.49114
1.64006
1.71726
1.71999
1.68119
1.64606
1.67323
1.78688
1.97756
2.18871
2.35682
2.45233
2.47091
2.44579
2.42391
2.46746
2.60376
2.82631
3.08004
3.30302
3.46681
3.55943
3.58695
-3.52423
-3.17526
-2.75542
-2.2755
-1.9232
-1.8955
-2.20838
-2.88186
-3.78169
-4.80509
-5.69218
-6.35191
-6.67744
-6.7171
-6.52371
-6.31461
-6.28735
-6.4352
-6.71532
-6.93097
-7.00604
-6.84678
-6.4818
-5.94279
-5.39351
-4.98164
-4.69109
-4.47945
-4.18936
-3.77841
-3.23041
-2.68003
-2.2743
-2.03706
-1.98807
-2.04269
-2.13592
-2.10861
-1.92648
-1.58464
-1.22984
-1.02111
-0.993793
-1.17877
-1.49954
-1.89578
-2.20008
-2.35455
-2.28819
-2.03237
-1.61966
-1.19554
-0.890271
-0.690149
-0.557667
-0.35188
-0.0353268
0.406004
0.846316
1.14861
1.29162
1.25808
1.13164
0.977542
0.953319
1.09513
1.41128
1.76134
1.99415
2.08259
2.00493
1.84577
1.67074
1.64163
1.79412
2.13489
2.51646
2.78004
2.89501
2.83643
2.69018
2.5241
2.50868
2.68447
3.06479
3.50301
3.84589
4.08123
4.19427
4.25129
-4.29678
-3.65084
-3.02228
-2.01183
-1.14986
-1.02178
-1.36368
-2.44982
-3.80452
-5.5754
-6.88421
-7.88933
-8.17726
-8.05259
-7.34638
-6.67039
-6.60735
-6.88565
-7.61595
-8.07881
-8.37328
-8.14692
-7.6244
-6.65279
-5.70741
-5.23878
-5.00731
-5.07707
-4.85012
-4.39165
-3.48298
-2.54177
-1.99937
-1.70661
-1.84551
-2.1013
-2.55244
-2.62286
-2.40452
-1.70129
-0.950416
-0.601288
-0.521349
-0.913768
-1.47869
-2.32054
-2.86186
-3.20996
-3.08636
-2.69283
-1.90484
-1.13891
-0.789896
-0.648934
-0.774445
-0.629261
-0.273008
0.496826
1.29133
1.70721
1.88555
1.65219
1.31244
0.792112
0.655809
0.816339
1.47197
2.19605
2.55183
2.68285
2.40298
2.02902
1.48119
1.34445
1.52621
2.22955
3.01031
3.41353
3.58395
3.32464
2.95963
2.40396
2.27128
2.46748
3.21682
4.0603
4.54079
4.86902
4.90713
5.06695
-5.54515
-4.10144
-3.83906
-1.53416
0.680512
0.528983
0.553001
-1.63081
-3.22784
-7.01083
-8.51334
-10.4592
-10.2709
-10.2252
-8.12517
-6.14313
-6.4354
-6.68488
-8.90135
-9.46874
-10.4901
-9.87308
-9.41319
-7.32451
-5.33421
-5.15386
-4.88922
-6.10143
-5.84374
-5.65257
-3.78175
-1.82852
-1.36424
-0.753909
-1.53398
-1.87791
-3.51655
-3.55223
-3.58006
-1.88573
-0.0916409
0.207014
0.632102
-0.399554
-1.05826
-3.17724
-3.80105
-4.74374
-4.27234
-3.92038
-2.15728
-0.480958
-0.388944
-0.223033
-1.38006
-1.20961
-1.10525
0.553134
2.28258
2.60889
3.07337
2.2005
1.75431
0.0547332
-0.0680858
-0.174352
1.43512
3.16212
3.43419
3.87582
2.93759
2.46371
0.700705
0.589705
0.508265
2.2137
4.04874
4.38317
4.89267
3.96602
3.5046
1.6757
1.56124
1.45484
3.2341
5.14106
5.45567
6.07539
5.44557
6.14587
-8.13185
-2.85076
-7.59691
-0.926433
5.91842
1.8272
5.64924
-1.65654
0.496938
-11.7299
-9.50375
-16.102
-12.1592
-15.3555
-8.73377
-2.34049
-6.3247
-3.6512
-12.5611
-10.2045
-14.9659
-11.3725
-13.547
-7.85406
-2.35415
-5.18978
-2.64389
-9.2419
-6.74098
-9.33163
-4.19859
1.02948
-0.938769
2.20168
-1.84981
0.210537
-6.78827
-4.49216
-7.23485
-2.21307
2.92133
0.834046
3.8841
-0.421607
1.4658
-6.18624
-4.28021
-8.31304
-5.28544
-7.17914
-2.28384
2.45931
-0.0934752
2.10886
-3.89632
-1.69382
-4.17435
0.508086
5.29531
3.3126
6.18796
2.13541
4.00205
-2.95217
-0.814816
-3.63468
1.23002
6.22428
4.07336
7.0568
2.80453
4.75573
-2.45762
-0.206616
-3.08175
2.01217
7.24903
5.10165
8.27036
3.93843
6.01968
-1.5204
0.840503
-2.27221
3.06836
8.51562
5.93202
9.08186
4.0695
8.10134
-17.5131
12.8394
-27.7945
-0.569655
26.9044
-8.26963
26.7697
-15.3036
24.9295
-37.2615
2.21302
-36.9241
-3.76716
-34.6238
-9.01364
16.4056
-15.8013
16.0623
-32.4446
-0.690859
-31.4729
-4.56642
-29.0105
-8.10605
12.6287
-12.9756
12.7682
-25.4854
-0.306865
-24.1335
-4.75287
14.2496
-7.8705
15.513
-10.9674
15.3435
-23.4455
1.82295
-22.0714
-2.70354
16.3326
-5.93771
17.7274
-9.36283
17.7256
-22.96
3.7914
-22.0507
0.786844
-20.2155
-2.19266
15.9043
-6.6468
16.2582
-18.2331
4.56407
-17.5596
0.310639
18.0552
-2.98084
19.2772
-6.45489
18.9503
-19.0525
5.57527
-18.1623
0.836786
19.5739
-2.68249
20.6556
-6.26303
20.2431
-19.246
6.37721
-18.1486
1.60345
21.0812
-1.83633
22.4476
-5.3254
22.3882
-18.9751
8.00061
-18.173
2.74795
23.4536
-1.84869
23.8409
-10.3312
15.6198
28866.8
28829.2
28791.2
28753
28714.5
28675.8
28636.8
28597.6
28558.3
28518.8
28479.2
28439.5
28399.7
28359.8
28320
0.442002
0.427824
0.408307
0.384089
0.35602
0.325023
0.291993
0.257718
0.222835
0.187809
0.152945
0.118406
0.0842357
0.0503918
0.0167705
0.742775
0.718825
0.685615
0.644341
0.596552
0.543907
0.48799
0.430165
0.371513
0.312806
0.254528
0.196921
0.140028
0.0837442
0.0278669
1.05343
1.01908
0.970982
0.911102
0.841927
0.766055
0.685888
0.60344
0.520251
0.437378
0.355447
0.274727
0.195212
0.116693
0.0388223
1.37878
1.33297
1.26801
1.18705
1.0939
0.99241
0.885996
0.777402
0.668632
0.56098
0.455137
0.351322
0.249401
0.148993
0.0495531
1.72503
1.66597
1.58101
1.47515
1.35416
1.22362
1.08822
0.951497
0.815861
0.682743
0.552776
0.426006
0.302068
0.18032
0.0599505
2.10022
2.02488
1.91494
1.77835
1.62393
1.45963
1.29169
1.12444
0.960531
0.801325
0.647194
0.49784
0.352532
0.210265
0.0698771
2.51528
2.41859
2.27566
2.0995
1.90361
1.69925
1.49439
1.29394
1.10044
0.91479
0.736804
0.565609
0.399942
0.238323
0.0791665
2.98569
2.859
2.66998
2.44071
2.19202
1.93948
1.69266
1.45639
1.2324
1.02053
0.819581
0.627823
0.443285
0.26391
0.0876276
3.53412
3.36231
3.10504
2.80185
2.48483
2.17437
1.88052
1.60657
1.35219
1.11528
0.893113
0.682779
0.48144
0.286391
0.095055
4.19639
3.95083
3.58588
3.17681
2.77152
2.39315
2.04877
1.73731
1.45448
1.19524
0.954758
0.7287
0.513278
0.30514
0.101249
5.04243
4.6572
4.10956
3.54671
3.03096
2.57814
2.18435
1.83953
1.53322
1.25643
1.00193
0.763945
0.537803
0.319627
0.106042
6.24761
5.52657
4.64902
3.86855
3.22686
2.70404
2.27108
1.90332
1.58244
1.29532
1.03257
0.787312
0.554341
0.329511
0.109333
8.28566
6.55244
5.09285
4.05177
3.30368
2.74011
2.29268
1.92029
1.59792
1.30982
1.04567
0.798362
0.562714
0.334731
0.111106
12.2571
7.30363
5.11781
3.94181
3.19591
2.66015
2.23937
1.8873
1.5791
1.30033
1.04189
0.797711
0.563398
0.33558
0.11146
-0.0918423
-0.27724
-0.467875
-0.667593
-0.880828
-1.113
-1.37112
-1.66484
-2.00835
-2.42429
-2.95234
-3.67092
-4.75867
-6.69209
-10.9494
-0.0868717
-0.262046
-0.441573
-0.628568
-0.826482
-1.03929
-1.27171
-1.52948
-1.81962
-2.15026
-2.5287
-2.95086
-3.35344
-3.3944
-1.40887
-0.0809057
-0.243823
-0.410077
-0.581947
-0.761777
-0.951936
-1.15466
-1.37161
-1.6027
-1.843
-2.07468
-2.24441
-2.19924
-1.50383
1.04275
-0.0741695
-0.223277
-0.374669
-0.529785
-0.689882
-0.855833
-1.0277
-1.20388
-1.3793
-1.54168
-1.66369
-1.68723
-1.4964
-0.898868
0.200259
-0.0668969
-0.201137
-0.336665
-0.474148
-0.613904
-0.755596
-0.897715
-1.03663
-1.16491
-1.26833
-1.32106
-1.27897
-1.07579
-0.64224
-0.00289155
-0.0593121
-0.178097
-0.297291
-0.416919
-0.536561
-0.655041
-0.769924
-0.876728
-0.967705
-1.03011
-1.04423
-0.982626
-0.81506
-0.52848
-0.168157
-0.0516135
-0.154763
-0.257605
-0.359662
-0.460003
-0.556957
-0.647715
-0.727782
-0.790292
-0.825343
-0.81991
-0.759838
-0.636911
-0.465865
-0.316715
-0.0439657
-0.131636
-0.218449
-0.303576
-0.385772
-0.46315
-0.532902
-0.590995
-0.631908
-0.64863
-0.633466
-0.580635
-0.49212
-0.387962
-0.319143
-0.036496
-0.109095
-0.180448
-0.249504
-0.314861
-0.374605
-0.426151
-0.466109
-0.490287
-0.494012
-0.473114
-0.42613
-0.358119
-0.28544
-0.234591
-0.0292959
-0.087408
-0.144027
-0.197979
-0.247817
-0.29172
-0.327411
-0.352146
-0.362838
-0.35645
-0.330822
-0.28615
-0.227285
-0.167667
-0.142034
-0.0224255
-0.0667474
-0.109441
-0.149287
-0.184864
-0.2145
-0.23624
-0.247897
-0.247216
-0.23221
-0.201697
-0.15594
-0.0969048
-0.0261971
0.0695691
-0.0159186
-0.0472063
-0.0768161
-0.103532
-0.126006
-0.142726
-0.15203
-0.152176
-0.141504
-0.118698
-0.0830955
-0.0348594
0.0254314
0.0979723
0.180281
-0.0097895
-0.0288193
-0.0461813
-0.0606989
-0.0711105
-0.0760626
-0.0741363
-0.0639249
-0.0441812
-0.0140313
0.0267977
0.0779494
0.139316
0.215463
0.33452
-0.00403793
-0.0115789
-0.0175024
-0.0206896
-0.0199721
-0.0141358
-0.00195242
0.0177488
0.0459526
0.0832581
0.129587
0.18377
0.242989
0.303254
0.372686
0.00134611
0.00454993
0.00929604
0.016636
0.0276473
0.0434254
0.0650565
0.0935624
0.129805
0.174318
0.226987
0.286196
0.345988
0.384777
0.313323
0.00637882
0.0196196
0.0343134
0.0514408
0.0719931
0.0969655
0.127339
0.16405
0.207953
0.259754
0.319906
0.388322
0.463623
0.542951
0.639557
0.0110801
0.0336921
0.0576613
0.0838963
0.113307
0.1468
0.185269
0.229594
0.280659
0.339428
0.40715
0.485775
0.578525
0.689242
0.809083
0.0154715
0.0468346
0.0794569
0.114176
0.151825
0.193224
0.239183
0.290507
0.348059
0.412927
0.486885
0.573533
0.681038
0.8293
1.07349
0.0195755
0.059115
0.0998176
0.142452
0.187777
0.23653
0.289422
0.347147
0.410425
0.480156
0.55787
0.646908
0.755337
0.902858
1.13577
0.0234141
0.0706005
0.118858
0.168892
0.221389
0.277007
0.336358
0.399986
0.468361
0.541891
0.621061
0.706926
0.802572
0.917237
1.07458
0.0270084
0.081355
0.136688
0.193653
0.252875
0.314942
0.380376
0.449582
0.522766
0.599759
0.679681
0.760267
0.836666
0.9021
0.977323
0.030378
0.0914379
0.153406
0.216878
0.282427
0.350589
0.421827
0.49647
0.574576
0.655643
0.737923
0.81664
0.878432
0.88029
0.651889
0.033541
0.100903
0.169104
0.238694
0.310208
0.38415
0.460969
0.541006
0.624377
0.710731
0.798718
0.884899
0.961871
1.0185
1.0733
0.0365139
0.1098
0.183861
0.259208
0.336346
0.415765
0.497934
0.583282
0.672155
0.764731
0.860842
0.959684
1.05951
1.1581
1.25407
0.0393118
0.118173
0.197749
0.278513
0.360944
0.445523
0.53275
0.623167
0.717411
0.81632
0.921142
1.03392
1.1581
1.29964
1.47387
0.0419492
0.126065
0.210835
0.296696
0.384095
0.473496
0.56541
0.660454
0.75948
0.86385
0.975983
1.10036
1.24473
1.4186
1.61076
0.0444402
0.133518
0.223187
0.313846
0.405901
0.499778
0.595957
0.695036
0.797894
0.90604
1.0224
1.15305
1.31097
1.52502
1.8673
0.0467993
0.140574
0.234877
0.330062
0.426486
0.524516
0.624549
0.727054
0.832692
0.942583
1.05898
1.18693
1.33834
1.54255
1.87632
0.0490409
0.147278
0.24598
0.345455
0.446003
0.547919
0.651483
0.756956
0.86459
0.974662
1.08763
1.20466
1.32913
1.47026
1.64446
0.0511795
0.153674
0.256572
0.360137
0.464618
0.570234
0.67715
0.785416
0.894849
1.00478
1.11355
1.21737
1.30841
1.37516
1.44418
0.053229
0.159804
0.266727
0.374221
0.482491
0.591703
0.701942
0.813125
0.924811
1.03577
1.14299
1.23911
1.30462
1.27864
0.924307
0.0552024
0.165708
0.276511
0.387804
0.499759
0.612515
0.726139
0.840545
0.95533
1.0694
1.18022
1.28226
1.36443
1.41025
1.44219
0.0571112
0.171419
0.285981
0.400963
0.516518
0.632782
0.749855
0.867765
0.986394
1.10534
1.22363
1.33937
1.44953
1.55165
1.65032
0.0589658
0.176969
0.295187
0.41376
0.532832
0.652545
0.773054
0.894547
1.0173
1.14177
1.26888
1.4005
1.54033
1.69556
1.8841
0.0607757
0.182385
0.30417
0.42625
0.548749
0.671813
0.795634
0.920521
1.04705
1.17642
1.31107
1.45605
1.62054
1.81648
2.03223
0.0625501
0.187695
0.312976
0.438485
0.564323
0.690613
0.817537
0.945417
1.07491
1.20744
1.34618
1.49817
1.67903
1.92378
2.31934
0.0642983
0.192926
0.321649
0.450528
0.57963
0.70903
0.838839
0.969256
1.10071
1.23421
1.37216
1.5204
1.69324
1.9265
2.31537
0.0660297
0.198107
0.330238
0.462454
0.594777
0.727221
0.859781
0.992435
1.12515
1.25795
1.39109
1.5257
1.66557
1.82131
2.01015
0.0677535
0.203267
0.338796
0.474342
0.609889
0.745387
0.880718
1.01563
1.14959
1.28151
1.40909
1.52749
1.62696
1.69328
1.75801
0.069478
0.20843
0.347366
0.486266
0.625083
0.763727
0.902008
1.03954
1.1755
1.30814
1.43355
1.54258
1.61142
1.5665
1.12258
0.0712102
0.213619
0.355989
0.498284
0.640446
0.782374
0.923882
1.0646
1.20378
1.33984
1.46947
1.58573
1.67494
1.71694
1.73805
0.0729557
0.21885
0.364689
0.510431
0.656018
0.801371
0.946365
1.09079
1.23426
1.37605
1.51474
1.64781
1.77131
1.88202
1.98534
0.0747181
0.224133
0.373482
0.522721
0.6718
0.820674
0.969307
1.1177
1.26597
1.41444
1.56401
1.71668
1.87666
2.05234
2.26497
0.0765004
0.229476
0.382378
0.535157
0.687772
0.8402
0.992475
1.14477
1.29758
1.45213
1.61118
1.78059
1.9712
2.19714
2.44386
0.0783047
0.234886
0.391384
0.547744
0.70392
0.859888
1.01569
1.17154
1.32805
1.48674
1.65125
1.82989
2.04129
2.32766
2.79414
0.0801332
0.240369
0.40051
0.560494
0.720257
0.879743
1.03893
1.19792
1.35705
1.51736
1.68159
1.85658
2.05942
2.33324
2.79248
0.081988
0.245931
0.409771
0.573434
0.736831
0.899858
1.06238
1.22425
1.38527
1.54533
1.70454
1.86408
2.02834
2.2102
2.43151
0.0838706
0.251578
0.419179
0.586592
0.753708
0.920374
1.08635
1.25122
1.41423
1.57392
1.72735
1.86844
1.98511
2.05991
2.13068
0.0857814
0.257312
0.428743
0.599991
0.770943
0.941423
1.11114
1.27953
1.44554
1.60692
1.7588
1.88989
1.97102
1.91255
1.36763
0.0877188
0.26313
0.438457
0.61363
0.788549
0.963059
1.13689
1.30957
1.48011
1.64655
1.80477
1.94618
2.0539
2.10313
2.12571
0.0896793
0.26902
0.448302
0.627479
0.806483
0.985215
1.16352
1.34113
1.51757
1.69194
1.86248
2.026
2.17747
2.31233
2.43477
0.0916568
0.274963
0.458244
0.641481
0.824648
1.00772
1.19068
1.37357
1.55653
1.74002
1.92513
2.11432
2.31266
2.53028
2.79344
0.0936441
0.280936
0.46824
0.655564
0.842922
1.03035
1.21795
1.406
1.59517
1.78702
1.98501
2.19639
2.43455
2.71671
3.02321
0.095633
0.286915
0.478245
0.669655
0.861188
1.05291
1.24497
1.43772
1.632
1.82979
2.03566
2.25999
2.52597
2.88637
3.4733
0.097615
0.292873
0.488215
0.683694
0.879363
1.07528
1.27156
1.46842
1.66644
1.867
2.07357
2.29477
2.55191
2.89886
3.47788
0.0995816
0.298786
0.498112
0.697632
0.897403
1.09746
1.2978
1.49839
1.69915
1.90007
2.10141
2.30472
2.51554
2.75032
3.03782
0.101523
0.304627
0.507896
0.711427
0.915284
1.11948
1.32391
1.52827
1.73181
1.93289
2.12797
2.30957
2.4626
2.56528
2.66503
0.10343
0.310365
0.51752
0.725024
0.932971
1.14138
1.35013
1.55878
1.76622
1.96991
2.16396
2.33438
2.44467
2.38239
1.71136
0.105289
0.315962
0.526921
0.738343
0.950372
1.1631
1.37647
1.59016
1.80329
2.01367
2.21642
2.40106
2.54664
2.62233
2.66864
0.107084
0.321372
0.536022
0.751268
0.96733
1.1844
1.40262
1.622
1.8423
2.06275
2.28153
2.49499
2.69718
2.88279
3.05729
0.108799
0.326543
0.544729
0.763653
0.983623
1.20496
1.42802
1.65324
1.88124
2.11301
2.35038
2.59687
2.8593
3.15106
3.50613
0.110416
0.331419
0.552941
0.775341
0.999002
1.22436
1.45196
1.6826
1.9176
2.15943
2.41295
2.68776
3.00114
3.37545
3.788
0.111916
0.335944
0.560561
0.786178
1.01324
1.24224
1.47384
1.70898
1.94927
2.19776
2.46081
2.75196
3.10074
3.57341
4.3343
0.113285
0.340071
0.567506
0.79604
1.02615
1.25836
1.49331
1.73184
1.97526
2.22603
2.4892
2.77623
3.11436
3.57132
4.32605
0.114508
0.343756
0.573705
0.804833
1.03764
1.27262
1.51033
1.75132
1.9962
2.24571
2.50109
2.76514
3.04552
3.36256
3.7475
0.115572
0.346965
0.579102
0.812488
1.04763
1.28503
1.52512
1.76815
2.01395
2.26136
2.50702
2.74279
2.95127
3.10673
3.26804
0.116468
0.349665
0.583646
0.818944
1.05609
1.29561
1.5379
1.78309
2.03062
2.27826
2.51986
2.7395
2.89388
2.84694
2.06648
0.117186
0.35183
0.587292
0.824136
1.06294
1.30429
1.5487
1.79645
2.04724
2.29938
2.548
2.78162
2.97632
3.09662
3.19307
0.117719
0.353435
0.589992
0.827986
1.06805
1.31089
1.55721
1.80772
2.06296
2.32295
2.58661
2.85087
3.11047
3.36294
3.62603
0.118062
0.354464
0.59171
0.830415
1.07127
1.31509
1.56284
1.81575
2.07541
2.344
2.62483
2.92343
3.24963
3.62195
4.08242
0.118216
0.354913
0.592427
0.831368
1.07246
1.31658
1.56493
1.81914
2.08167
2.35655
2.65076
2.9769
3.35682
3.81981
4.35232
0.118187
0.354803
0.592166
0.830849
1.07155
1.31518
1.56298
1.81676
2.0794
2.35572
2.65455
2.99309
3.40635
3.96948
4.86061
0.117992
0.35418
0.590999
0.828944
1.06864
1.31091
1.55689
1.80828
2.06764
2.33926
2.63082
2.95745
3.35184
3.89146
4.78244
0.117659
0.353125
0.58906
0.825841
1.06396
1.30407
1.54709
1.79427
2.0474
2.30898
2.58276
2.87484
3.19651
3.5695
4.00909
0.117223
0.351752
0.586542
0.821824
1.05791
1.29524
1.53441
1.77617
2.0213
2.27025
2.52204
2.77173
3.00557
3.20135
3.42415
0.116732
0.350201
0.583693
0.817261
1.05102
1.28516
1.51996
1.75574
1.99257
2.22956
2.46281
2.67969
2.84106
2.81451
2.06461
0.11624
0.348639
0.580799
0.812579
1.04387
1.27463
1.50485
1.73459
1.96373
2.19148
2.41497
2.62625
2.80708
2.93003
3.05185
0.115806
0.347247
0.578175
0.808244
1.03712
1.26448
1.49011
1.71388
1.93588
2.15636
2.37563
2.59401
2.8133
3.04637
3.3529
0.115491
0.346216
0.576154
0.804751
1.03142
1.25556
1.47666
1.69441
1.9091
2.12209
2.33693
2.56118
2.80997
3.11173
3.51415
0.115357
0.345733
0.575071
0.802606
1.02748
1.24877
1.46554
1.6771
1.8835
2.08655
2.29169
2.51134
2.76986
3.10723
3.56173
0.115459
0.345974
0.575244
0.802312
1.02605
1.24512
1.45805
1.66337
1.86024
2.04956
2.23639
2.43455
2.67501
3.0214
3.59788
0.115841
0.347082
0.576948
0.804335
1.02786
1.24576
1.45584
1.65552
1.84223
2.0143
2.17325
2.32839
2.50661
2.77582
3.32673
0.116528
0.349146
0.580376
0.809043
1.03358
1.25183
1.46085
1.6567
1.83438
1.98815
2.11275
2.20624
2.27503
2.33465
2.35392
0.117521
0.352175
0.585583
0.816618
1.04366
1.26431
1.475
1.67048
1.84312
1.98227
2.07385
2.10127
2.04982
1.9215
1.80231
0.118781
0.356067
0.592437
0.826961
1.05817
1.2837
1.49972
1.70011
1.87512
2.00942
2.07952
2.05109
1.878
1.50205
0.809568
0.120232
0.360594
0.600567
0.839598
1.07662
1.30968
1.53528
1.74735
1.93537
2.08116
2.15363
2.10139
1.84707
1.3024
0.460335
0.121753
0.365387
0.609344
0.85362
1.09781
1.34081
1.58021
1.81128
2.02495
2.20382
2.31436
2.29204
2.01777
1.30928
0.114337
0.123184
0.369952
0.617892
0.867684
1.11982
1.37442
1.63091
1.88729
2.13869
2.37394
2.56739
2.65768
2.49001
1.65396
-0.954042
0.124336
0.373697
0.625143
0.880108
1.1401
1.40671
1.68166
1.96675
2.26365
2.57313
2.89209
3.20248
3.42635
3.22908
1.10354
0.125006
0.375988
0.629938
0.889024
1.15574
1.43317
1.72534
2.03799
2.3799
2.76578
3.22282
3.80745
4.65499
6.14289
9.48029
9.30431
5.82717
4.3191
3.48264
2.92003
2.48957
2.13226
1.81978
1.53682
1.27428
1.02627
0.788688
0.558484
0.333206
0.110761
0.492342
2.78023
3.03159
2.84196
2.56338
2.2766
1.99967
1.73528
1.48241
1.23923
1.0039
0.774725
0.550174
0.32884
0.109405
-1.62069
1.14761
2.05023
2.26299
2.21238
2.05682
1.85837
1.64279
1.42126
1.19872
0.977245
0.757538
0.539619
0.323151
0.107611
-0.30299
0.810548
1.54788
1.86687
1.93428
1.86685
1.72899
1.55443
1.36081
1.15746
0.949344
0.739096
0.528048
0.316811
0.105595
-0.179399
0.734684
1.33601
1.64547
1.74982
1.7258
1.6251
1.4793
1.3071
1.11948
0.922911
0.721197
0.516599
0.310452
0.103558
0.0986515
0.875982
1.3268
1.56651
1.65451
1.63803
1.55252
1.42249
1.26409
1.08772
0.900036
0.705291
0.50622
0.304608
0.101673
1.01231
1.24401
1.4642
1.59292
1.63177
1.5982
1.51087
1.38539
1.23355
1.0638
0.882056
0.692384
0.497601
0.299681
0.100071
1.51822
1.62005
1.66512
1.68176
1.65935
1.59572
1.49572
1.36659
1.21544
1.04821
0.869576
0.683024
0.491159
0.295927
0.0988396
2.40924
2.03551
1.8858
1.79776
1.71555
1.6185
1.50079
1.36309
1.20849
1.04055
0.862591
0.677353
0.487054
0.293461
0.0980189
2.69702
2.29543
2.06368
1.90973
1.78209
1.65562
1.51974
1.37134
1.21079
1.03986
0.860661
0.675199
0.485239
0.292281
0.0976121
2.80064
2.43742
2.18754
2.00344
1.84784
1.6993
1.5474
1.38802
1.22032
1.04493
0.863084
0.676173
0.48551
0.292291
0.0975915
2.82437
2.50074
2.26573
2.0774
1.9087
1.74531
1.58025
1.41051
1.23519
1.05447
0.869036
0.679758
0.48756
0.293331
0.0979078
2.77366
2.50255
2.31152
2.13774
1.9659
1.7925
1.61636
1.43688
1.25383
1.06731
0.877664
0.685379
0.491027
0.295202
0.098498
2.55678