/*--------------------------------*- C++ -*----------------------------------*\
| =========                 |                                                 |
| \\      /  F ield         | OpenFOAM: The Open Source CFD Toolbox           |
|  \\    /   O peration     | Version:  5.x                                   |
|   \\  /    A nd           | Web:      www.OpenFOAM.org                      |
|    \\/     M anipulation  |                                                 |
\*---------------------------------------------------------------------------*/
FoamFile
{
    version     2.0;
    format      ascii;
    class       volScalarField;
    location    "3.6";
    object      gradTx;
}
// * * * * * * * * * * * * * * * * * * * * * * * * * * * * * * * * * * * * * //

dimensions      [0 -1 0 1 0 0 0];

internalField   nonuniform List<scalar> 
6300
(
-48.4352
-48.4142
-48.3722
-48.309
-48.2244
-48.1183
-47.9907
-47.8416
-47.6715
-47.4809
-47.2711
-47.0433
-46.7993
-46.5406
-46.269
-48.4563
-48.4354
-48.3935
-48.3305
-48.2461
-48.14
-48.0123
-47.8628
-47.692
-47.5004
-47.2892
-47.0598
-46.814
-46.5538
-46.2811
-48.4985
-48.4777
-48.4362
-48.3735
-48.2895
-48.1836
-48.0557
-47.9056
-47.7334
-47.5398
-47.3257
-47.0928
-46.8433
-46.5798
-46.3046
-48.5615
-48.5411
-48.5001
-48.4381
-48.3548
-48.2494
-48.1215
-47.9706
-47.7965
-47.5997
-47.3811
-47.1426
-46.8869
-46.6174
-46.3378
-48.645
-48.6251
-48.5851
-48.5243
-48.4422
-48.3379
-48.2104
-48.0588
-47.8826
-47.6816
-47.4567
-47.2099
-46.9445
-46.6653
-46.378
-48.7486
-48.7295
-48.6908
-48.632
-48.5521
-48.4497
-48.3235
-48.1719
-47.9935
-47.7876
-47.5544
-47.2958
-47.016
-46.7216
-46.4211
-48.8715
-48.8534
-48.8169
-48.761
-48.6845
-48.5856
-48.4622
-48.3119
-48.1322
-47.9211
-47.6777
-47.4032
-47.1024
-46.7841
-46.4613
-49.0126
-48.996
-48.9625
-48.9108
-48.8394
-48.7461
-48.6279
-48.4813
-48.3024
-48.087
-47.8321
-47.5372
-47.2065
-46.8512
-46.4909
-49.1703
-49.1558
-49.1262
-49.0804
-49.0164
-48.9316
-48.8222
-48.6834
-48.5091
-48.2925
-48.0268
-47.7072
-47.3352
-46.9235
-46.5003
-49.3427
-49.3308
-49.3064
-49.2683
-49.2144
-49.1418
-49.046
-48.921
-48.7584
-48.5474
-48.2754
-47.9298
-47.504
-47.0073
-46.4785
-49.5272
-49.5184
-49.5004
-49.472
-49.4313
-49.3752
-49.2992
-49.1963
-49.0561
-48.8635
-48.5977
-48.2328
-47.7436
-47.1235
-46.4169
-49.7205
-49.7154
-49.7049
-49.6882
-49.6636
-49.6288
-49.5795
-49.5091
-49.4063
-49.2529
-49.0193
-48.6601
-48.1144
-47.3261
-46.3168
-49.9189
-49.918
-49.9159
-49.9123
-49.9064
-49.8969
-49.8811
-49.8543
-49.8073
-49.7227
-49.5666
-49.2741
-48.7279
-47.75
-46.211
-50.1185
-50.1218
-50.1285
-50.1388
-50.153
-50.1714
-50.1939
-50.2197
-50.246
-50.264
-50.2503
-50.142
-49.7732
-48.735
-46.2549
-50.3148
-50.3222
-50.3375
-50.3615
-50.3955
-50.4418
-50.5034
-50.5848
-50.6929
-50.8371
-51.0289
-51.2706
-51.4881
-51.1622
-47.3481
-46.01
-45.7657
-45.513
-45.2511
-44.9789
-44.6946
-44.3966
-44.0832
-43.753
-43.4054
-43.04
-42.6574
-42.2588
-41.846
-41.421
-40.9864
-40.5449
-40.0992
-39.6521
-39.2067
-38.7658
-38.3322
-37.9086
-37.4974
-37.1008
-36.7208
-36.3586
-36.0153
-35.6916
-35.3876
-35.1033
-34.8382
-34.5914
-34.362
-34.1487
-33.9502
-33.7652
-33.5925
-33.4306
-33.2785
-33.1348
-32.9987
-32.8691
-32.7454
-32.6272
-32.5143
-32.4072
-32.3063
-32.2128
-32.1278
-32.0524
-31.9879
-31.9354
-31.8959
-31.8699
-31.8579
-31.8602
-31.8764
-31.9065
-31.9497
-32.0055
-32.0732
-32.152
-32.2411
-32.3401
-32.4485
-32.5656
-32.6913
-32.825
-32.9665
-33.1156
-33.272
-33.4356
-33.6064
-33.7844
-33.9696
-34.1621
-34.3619
-34.5688
-34.7828
-35.0038
-35.2314
-35.4655
-35.7058
-35.9516
-36.2022
-36.4565
-36.7132
-36.9707
-37.227
-46.0218
-45.7779
-45.5264
-45.2664
-44.9964
-44.7146
-44.419
-44.1075
-43.7785
-43.4311
-43.065
-42.6808
-42.2797
-41.8637
-41.4352
-40.9967
-40.5512
-40.1013
-39.6501
-39.2006
-38.7556
-38.3181
-37.8909
-37.4766
-37.0775
-36.6953
-36.3316
-35.9874
-35.6634
-35.3597
-35.0761
-34.8121
-34.5668
-34.3391
-34.1276
-33.931
-33.748
-33.577
-33.4169
-33.2664
-33.1243
-32.9895
-32.8609
-32.7378
-32.6196
-32.5063
-32.3982
-32.296
-32.2008
-32.114
-32.0368
-31.9708
-31.917
-31.8764
-31.8498
-31.8376
-31.8399
-31.8567
-31.8874
-31.9316
-31.9885
-32.0571
-32.1369
-32.2269
-32.3266
-32.4356
-32.5533
-32.6794
-32.8136
-32.9555
-33.1048
-33.2614
-33.425
-33.5958
-33.7737
-33.9589
-34.1514
-34.3512
-34.5583
-34.7725
-34.9937
-35.2217
-35.4563
-35.6973
-35.9442
-36.1963
-36.4526
-36.7117
-36.972
-37.2312
-46.0444
-45.8014
-45.5523
-45.2962
-45.0312
-44.7549
-44.4645
-44.1572
-43.8309
-43.4841
-43.1165
-42.7286
-42.3223
-41.8998
-41.4639
-41.0176
-40.5639
-40.1058
-39.6462
-39.1882
-38.7349
-38.2896
-37.8551
-37.4344
-37.0299
-36.6436
-36.2769
-35.931
-35.6063
-35.303
-35.0209
-34.7594
-34.5172
-34.2931
-34.0855
-33.8928
-33.7135
-33.5463
-33.3897
-33.2426
-33.1037
-32.9716
-32.8451
-32.7233
-32.6053
-32.4911
-32.3809
-32.2758
-32.177
-32.0863
-32.0055
-31.9361
-31.8795
-31.8369
-31.809
-31.7964
-31.799
-31.8167
-31.8491
-31.8952
-31.9543
-32.0251
-32.1069
-32.1986
-32.2998
-32.4099
-32.5287
-32.6558
-32.7909
-32.9335
-33.0834
-33.2402
-33.4039
-33.5745
-33.7522
-33.9373
-34.1298
-34.3298
-34.5372
-34.7518
-34.9734
-35.202
-35.4376
-35.6799
-35.9289
-36.184
-36.4442
-36.7081
-36.9739
-37.2393
-46.0758
-45.8338
-45.5886
-45.339
-45.0825
-44.8157
-44.5345
-44.2347
-43.9131
-43.5674
-43.1972
-42.8034
-42.3884
-41.9554
-41.508
-41.0495
-40.5834
-40.1126
-39.6402
-39.1692
-38.7032
-38.2456
-37.7999
-37.3693
-36.9566
-36.5639
-36.1928
-35.8442
-35.5186
-35.2162
-34.9367
-34.679
-34.4419
-34.2236
-34.0221
-33.8355
-33.6621
-33.5004
-33.3492
-33.2073
-33.0734
-32.9458
-32.8229
-32.7034
-32.5859
-32.4702
-32.3566
-32.2465
-32.1418
-32.0448
-31.9578
-31.883
-31.8221
-31.7763
-31.7465
-31.7331
-31.7363
-31.7557
-31.7908
-31.8404
-31.9031
-31.9775
-32.0623
-32.1566
-32.2598
-32.3716
-32.492
-32.6206
-32.7571
-32.901
-33.0518
-33.209
-33.3726
-33.5428
-33.7199
-33.9046
-34.097
-34.2973
-34.5053
-34.7205
-34.9428
-35.172
-35.4085
-35.6526
-35.9044
-36.1637
-36.4299
-36.7014
-36.976
-37.2512
-46.1122
-45.8712
-45.6315
-45.3919
-45.149
-44.8976
-44.6314
-44.344
-44.0301
-43.6864
-43.3121
-42.9091
-42.4809
-42.0323
-41.5681
-41.0928
-40.6098
-40.1221
-39.6323
-39.1437
-38.6597
-38.1848
-37.7231
-37.2787
-36.8548
-36.4536
-36.0765
-35.7245
-35.3979
-35.0969
-34.8211
-34.5694
-34.3399
-34.1302
-33.9376
-33.7596
-33.5941
-33.4398
-33.2957
-33.1609
-33.0341
-32.9134
-32.7964
-32.6807
-32.5643
-32.4464
-32.3276
-32.2097
-32.0956
-31.9888
-31.8927
-31.8101
-31.743
-31.6929
-31.6604
-31.6461
-31.6502
-31.6723
-31.7116
-31.7665
-31.8349
-31.9147
-32.0041
-32.1017
-32.2074
-32.321
-32.4431
-32.5737
-32.7124
-32.8583
-33.0106
-33.1683
-33.3315
-33.5006
-33.6765
-33.8603
-34.0527
-34.2535
-34.4625
-34.6787
-34.9016
-35.1312
-35.3682
-35.6136
-35.8684
-36.1332
-36.4074
-36.6896
-36.9769
-37.2661
-46.1478
-45.9068
-45.6746
-45.4499
-45.228
-45.0011
-44.7591
-44.4916
-44.1902
-43.8496
-43.4689
-43.0512
-42.603
-42.1317
-41.6447
-41.1474
-40.6435
-40.1348
-39.6233
-39.1115
-38.6037
-38.1052
-37.6219
-37.159
-36.7205
-36.3087
-35.9246
-35.5685
-35.2408
-34.9418
-34.6713
-34.4281
-34.2098
-34.0126
-33.8325
-33.6659
-33.5103
-33.3648
-33.2291
-33.1033
-32.9864
-32.876
-32.7682
-32.6591
-32.5451
-32.4243
-32.2975
-32.1675
-32.0391
-31.9177
-31.8084
-31.715
-31.6398
-31.584
-31.5481
-31.5327
-31.5381
-31.5643
-31.61
-31.6732
-31.7504
-31.8382
-31.9337
-32.0353
-32.1431
-32.2582
-32.3819
-32.515
-32.657
-32.8064
-32.9611
-33.1197
-33.2817
-33.4483
-33.6215
-33.8035
-33.9956
-34.1978
-34.4088
-34.6268
-34.8504
-35.0794
-35.3153
-35.5605
-35.8177
-36.0885
-36.3732
-36.6697
-36.9747
-37.2835
-46.1739
-45.9301
-45.7069
-45.5039
-45.3146
-45.1266
-44.9236
-44.6885
-44.4071
-44.0709
-43.679
-43.2378
-42.7585
-42.2543
-41.7363
-41.2121
-40.6842
-40.152
-39.6148
-39.0741
-38.5346
-38.0042
-37.4915
-37.0046
-36.5483
-36.1244
-35.7326
-35.372
-35.0427
-34.7458
-34.4823
-34.2514
-34.0495
-33.8707
-33.7083
-33.5566
-33.4124
-33.2758
-33.1487
-33.0333
-32.9297
-32.8348
-32.7424
-32.6449
-32.5357
-32.4113
-32.2721
-32.1233
-31.9727
-31.8294
-31.7013
-31.5937
-31.5087
-31.4464
-31.4066
-31.3895
-31.3963
-31.4279
-31.4834
-31.5595
-31.6506
-31.7505
-31.8544
-31.96
-32.0683
-32.1827
-32.307
-32.4433
-32.5909
-32.7465
-32.9059
-33.0657
-33.225
-33.3861
-33.5535
-33.7317
-33.9237
-34.129
-34.3447
-34.5664
-34.7909
-35.0174
-35.2486
-35.4898
-35.7468
-36.0236
-36.3212
-36.6371
-36.9663
-37.3023
-46.1769
-45.9238
-45.7104
-45.5385
-45.3996
-45.2741
-45.1347
-44.9525
-44.703
-44.3725
-43.9606
-43.4795
-42.9504
-42.3967
-41.8374
-41.2824
-40.7312
-40.1767
-39.6119
-39.0352
-38.4529
-37.8777
-37.3246
-36.8063
-36.3296
-35.8943
-35.496
-35.1308
-34.7983
-34.5022
-34.2469
-34.0333
-33.8563
-33.7056
-33.569
-33.4367
-33.3041
-33.1734
-33.0517
-32.9465
-32.8609
-32.7905
-32.7241
-32.6478
-32.5487
-32.4195
-32.261
-32.0818
-31.896
-31.7194
-31.565
-31.44
-31.345
-31.2768
-31.2323
-31.2119
-31.2188
-31.2571
-31.3273
-31.4242
-31.538
-31.6571
-31.7725
-31.8806
-31.9847
-32.093
-32.2147
-32.3552
-32.513
-32.681
-32.8499
-33.0121
-33.1655
-33.3148
-33.4695
-33.6399
-33.8321
-34.0451
-34.2716
-34.5018
-34.728
-34.9481
-35.1671
-35.3959
-35.6468
-35.9282
-36.2423
-36.5849
-36.9478
-37.3214
-46.1367
-45.8607
-45.6544
-45.5259
-45.4654
-45.4416
-45.4078
-45.3133
-45.116
-44.7918
-44.3418
-43.7906
-43.1781
-42.5474
-41.9325
-41.3477
-40.7834
-40.2167
-39.6263
-39.0046
-38.3614
-37.7198
-37.1077
-36.5484
-36.0517
-35.6113
-35.2122
-34.8427
-34.5019
-34.2002
-33.9517
-33.7627
-33.6255
-33.5204
-33.424
-33.3174
-33.1932
-33.0584
-32.9312
-32.8318
-32.7705
-32.7404
-32.7206
-32.6838
-32.6052
-32.4703
-32.2799
-32.0499
-31.8064
-31.5777
-31.3865
-31.2432
-31.1428
-31.0729
-31.0237
-30.9948
-30.9962
-31.0404
-31.1326
-31.2647
-31.4177
-31.5691
-31.701
-31.8069
-31.8947
-31.9837
-32.0952
-32.2418
-32.4202
-32.6142
-32.8032
-32.9708
-33.1117
-33.2353
-33.3625
-33.5164
-33.7104
-33.9413
-34.1926
-34.4426
-34.6736
-34.8798
-35.0711
-35.2699
-35.5022
-35.7854
-36.1221
-36.5028
-36.9133
-37.3394
-46.024
-45.6972
-45.4867
-45.4153
-45.4785
-45.6239
-45.7684
-45.8227
-45.7118
-45.3926
-44.869
-44.1903
-43.4321
-42.6755
-41.9848
-41.3835
-40.8391
-40.2911
-39.6862
-39.0052
-38.2679
-37.5195
-36.8152
-36.2006
-35.6931
-35.2689
-34.8863
-34.5135
-34.1492
-33.8221
-33.5709
-33.4181
-33.3487
-33.3229
-33.2938
-33.224
-33.098
-32.9325
-32.771
-32.6625
-32.6352
-32.6757
-32.7418
-32.7801
-32.7429
-32.6011
-32.3558
-32.0378
-31.6955
-31.3818
-31.1395
-30.9845
-30.8967
-30.8396
-30.7856
-30.7344
-30.7122
-30.7544
-30.8804
-31.0751
-31.2997
-31.5089
-31.6669
-31.7593
-31.8031
-31.8418
-31.9251
-32.0827
-32.3046
-32.5543
-32.7873
-32.9679
-33.0826
-33.1502
-33.2169
-33.3348
-33.5352
-33.8081
-34.1154
-34.4102
-34.6545
-34.8329
-34.9639
-35.0955
-35.2837
-35.5653
-35.9381
-36.3774
-36.856
-37.355
-45.7952
-45.3664
-45.119
-45.1109
-45.3736
-45.8075
-46.259
-46.5699
-46.6079
-46.2879
-45.6196
-44.7049
-43.684
-42.7089
-41.9085
-41.3376
-40.9003
-40.4477
-39.856
-39.0873
-38.1904
-37.2563
-36.3936
-35.6989
-35.2146
-34.8669
-34.5464
-34.1725
-33.7433
-33.3348
-33.0489
-32.9534
-33.0095
-33.1304
-33.2226
-33.2115
-33.0601
-32.8012
-32.5346
-32.3767
-32.4024
-32.5745
-32.803
-32.9854
-33.0316
-32.8813
-32.5365
-32.0607
-31.5434
-31.0835
-30.7666
-30.6293
-30.6064
-30.6017
-30.5438
-30.432
-30.3356
-30.3476
-30.5294
-30.8425
-31.2037
-31.5226
-31.7272
-31.7816
-31.7184
-31.6356
-31.648
-31.8306
-32.1488
-32.5183
-32.8465
-33.0596
-33.1213
-33.0663
-32.9973
-33.0342
-33.2553
-33.625
-34.0557
-34.4504
-34.73
-34.8538
-34.8553
-34.8393
-34.9306
-35.2134
-35.658
-36.1951
-36.7692
-37.3641
-45.3826
-44.7746
-44.407
-44.4166
-45.0225
-45.9661
-46.952
-47.7106
-48.0197
-47.6852
-46.7251
-45.3726
-43.8703
-42.491
-41.5018
-41.0999
-40.9838
-40.8047
-40.2812
-39.3541
-38.1668
-36.8905
-35.7304
-34.8947
-34.5397
-34.426
-34.2837
-33.9115
-33.308
-32.6713
-32.2529
-32.2707
-32.5771
-32.9794
-33.3006
-33.4014
-33.1771
-32.6812
-32.1422
-31.8266
-31.959
-32.3925
-32.931
-33.387
-33.6034
-33.4418
-32.9063
-32.1435
-31.3088
-30.5796
-30.1353
-30.1092
-30.2902
-30.4404
-30.3797
-30.1075
-29.8027
-29.6964
-29.9893
-30.5408
-31.1683
-31.7009
-32.0036
-31.9733
-31.662
-31.2923
-31.1257
-31.3832
-31.9191
-32.5413
-33.0715
-33.3689
-33.3276
-33.0022
-32.625
-32.468
-32.761
-33.3538
-34.0477
-34.656
-35.0293
-35.0507
-34.7714
-34.4282
-34.3015
-34.6279
-35.2442
-35.9593
-36.652
-37.3465
-44.6414
-43.837
-43.1522
-42.864
-44.1856
-46.0641
-47.9726
-49.499
-50.3586
-49.9835
-48.3963
-46.2565
-43.8799
-41.7118
-40.2498
-40.4508
-41.1586
-41.658
-41.2878
-39.996
-38.2721
-36.3576
-34.6006
-33.3985
-33.5178
-34.0268
-34.3523
-33.9839
-32.9208
-31.6942
-30.829
-31.173
-32.0073
-32.9457
-33.6962
-34.0598
-33.6859
-32.6237
-31.4287
-30.6317
-31.0824
-32.0597
-33.178
-34.1342
-34.7197
-34.5411
-33.6038
-32.3301
-30.9228
-29.6657
-28.9019
-29.2913
-30.0184
-30.5831
-30.5202
-29.8303
-28.9842
-28.4704
-29.0769
-30.1295
-31.2697
-32.2103
-32.7593
-32.5696
-31.6894
-30.6563
-29.9924
-30.5348
-31.5647
-32.6969
-33.6311
-34.1657
-33.9427
-33.0122
-31.9352
-31.2533
-31.8345
-32.9366
-34.1624
-35.1996
-35.8348
-35.6798
-34.7791
-33.7047
-33.0192
-33.6246
-34.6875
-35.7555
-36.5316
-37.199
-43.0329
-42.7273
-41.3263
-38.9931
-42.5467
-46.1191
-49.5437
-52.2476
-54.4757
-54.0278
-50.8632
-47.4818
-43.5895
-39.9161
-36.6034
-39.0721
-41.6339
-43.7638
-43.6218
-41.2606
-38.652
-35.5981
-32.6721
-29.9999
-31.9349
-33.892
-35.4207
-35.0569
-32.7693
-30.197
-27.664
-29.3697
-31.2876
-33.1831
-34.6494
-35.7805
-35.1863
-32.7574
-30.1424
-27.6405
-29.4477
-31.524
-33.6589
-35.4155
-36.9366
-36.7331
-34.7861
-32.709
-30.3208
-28.0415
-26.008
-27.9872
-29.9807
-31.6298
-31.5636
-29.7778
-27.6875
-25.631
-27.5224
-29.5918
-31.6584
-33.2838
-34.5785
-34.1602
-31.9369
-29.4884
-27.1219
-28.9843
-31.0626
-33.1373
-34.766
-36.0532
-35.5764
-33.2331
-30.6762
-28.2194
-30.1576
-32.3411
-34.5483
-36.3217
-37.7777
-37.3827
-35.0364
-32.4208
-29.878
-31.9621
-34.123
-35.9715
-36.5674
-36.3951
-37.6292
-43.1951
-40.843
-26.6456
-40.8812
-46.3871
-52.1531
-55.6817
-62.4467
-61.9844
-53.6428
-49.443
-42.9841
-37.6014
-24.6319
-37.5599
-42.7315
-49.1416
-49.1518
-42.8818
-39.6736
-34.655
-30.3785
-19.9671
-30.3206
-34.3744
-39.2149
-38.9004
-33.0285
-28.6433
-18.3957
-27.2612
-30.6006
-34.039
-36.0856
-39.986
-39.3292
-33.1596
-28.6938
-18.4443
-27.4258
-30.9043
-34.6848
-37.0362
-41.6373
-41.4363
-36.156
-33.5364
-29.5622
-26.0638
-17.3358
-26.6629
-30.439
-35.1466
-35.0834
-30.1639
-26.342
-17.1068
-25.7115
-29.0583
-32.6823
-34.8334
-38.8644
-38.3498
-32.5084
-28.2025
-18.1616
-27.1228
-30.5656
-34.2195
-36.3924
-40.4803
-39.8975
-33.7612
-29.2726
-18.8563
-28.1271
-31.711
-35.5583
-37.9004
-42.3854
-41.8949
-35.6812
-31.0312
-20.0739
-30.1882
-34.008
-37.9905
-37.7083
-32.1597
-37.5049
-37.8006
-38.0847
-38.3538
-38.6053
-38.8367
-39.0464
-39.2334
-39.3969
-39.5368
-39.6529
-39.7454
-39.8145
-39.8604
-39.8834
-37.5125
-37.8118
-38.0991
-38.3711
-38.6248
-38.8578
-39.0687
-39.2563
-39.4202
-39.56
-39.676
-39.7683
-39.8372
-39.883
-39.9058
-37.5276
-37.8343
-38.1284
-38.4061
-38.6643
-38.9007
-39.1137
-39.3025
-39.4668
-39.6067
-39.7223
-39.8141
-39.8825
-39.9279
-39.9505
-37.5505
-37.8689
-38.1736
-38.4602
-38.7252
-38.9664
-39.1824
-39.3728
-39.5375
-39.677
-39.7919
-39.8828
-39.9504
-39.9951
-40.0174
-37.5815
-37.9168
-38.2364
-38.5352
-38.8094
-39.0567
-39.2763
-39.4682
-39.6329
-39.7715
-39.8849
-39.9743
-40.0406
-40.0843
-40.106
-37.6212
-37.9797
-38.3195
-38.6343
-38.9198
-39.1743
-39.3975
-39.5902
-39.7539
-39.8905
-40.0015
-40.0885
-40.1527
-40.195
-40.2159
-37.6707
-38.0608
-38.4272
-38.762
-39.0609
-39.3227
-39.5485
-39.7405
-39.9017
-40.0346
-40.1417
-40.225
-40.2862
-40.3264
-40.3463
-37.7322
-38.165
-38.566
-38.9253
-39.2386
-39.5065
-39.7326
-39.9213
-40.0771
-40.2038
-40.305
-40.3832
-40.4403
-40.4776
-40.4961
-37.8093
-38.3004
-38.7463
-39.1341
-39.4612
-39.7319
-39.9538
-40.1345
-40.2808
-40.3982
-40.4909
-40.5619
-40.6135
-40.6472
-40.6638
-37.9082
-38.4807
-38.9843
-39.4032
-39.7398
-40.0059
-40.2157
-40.3816
-40.5129
-40.6167
-40.6977
-40.7595
-40.8042
-40.8333
-40.8476
-38.0387
-38.7295
-39.3068
-39.7543
-40.0886
-40.3362
-40.5216
-40.6628
-40.7721
-40.8573
-40.9234
-40.9736
-41.0099
-41.0336
-41.0452
-38.2136
-39.0912
-39.7584
-40.2176
-40.5235
-40.7287
-40.8716
-40.9759
-41.055
-41.1164
-41.1643
-41.201
-41.2277
-41.2453
-41.254
-38.4507
-39.6623
-40.4173
-40.8329
-41.0572
-41.1828
-41.2602
-41.314
-41.3552
-41.3885
-41.4158
-41.4377
-41.4542
-41.4653
-41.4709
-38.8237
-40.6898
-41.4164
-41.6398
-41.688
-41.6844
-41.6723
-41.6645
-41.663
-41.6663
-41.6723
-41.6792
-41.6855
-41.6903
-41.6929
-39.9828
-42.8552
-42.9179
-42.6221
-42.3689
-42.1938
-42.08
-42.0087
-41.9657
-41.9408
-41.9273
-41.9207
-41.9179
-41.9169
-41.9168
-50.4881
-50.4989
-50.5213
-50.5565
-50.6068
-50.6757
-50.7689
-50.8952
-51.0696
-51.3189
-51.6968
-52.3276
-53.5584
-56.5846
-66.3788
-50.6381
-50.6517
-50.6795
-50.7233
-50.7859
-50.8716
-50.9874
-51.1441
-51.36
-51.6675
-52.1284
-52.872
-54.194
-56.8141
-62.4285
-50.7788
-50.7945
-50.8267
-50.8772
-50.949
-51.0468
-51.1774
-51.3518
-51.5869
-51.9098
-52.3639
-53.0149
-53.928
-54.9642
-54.563
-50.9087
-50.926
-50.9613
-51.0164
-51.0942
-51.199
-51.3371
-51.5174
-51.7529
-52.0609
-52.4629
-52.9758
-53.5768
-54.1124
-54.2311
-51.0267
-51.0449
-51.0822
-51.1399
-51.2207
-51.3283
-51.4675
-51.6448
-51.8684
-52.1467
-52.4852
-52.8755
-53.2711
-53.5503
-53.4982
-51.1321
-51.1508
-51.1888
-51.2475
-51.3288
-51.4355
-51.5713
-51.7401
-51.9459
-52.191
-52.4718
-52.7714
-53.0462
-53.2183
-53.2109
-51.2246
-51.2433
-51.2812
-51.3393
-51.4192
-51.5227
-51.6522
-51.8096
-51.9962
-52.2105
-52.4456
-52.6845
-52.8926
-53.0112
-52.9177
-51.3041
-51.3224
-51.3595
-51.4161
-51.4932
-51.592
-51.7137
-51.8589
-52.0272
-52.2157
-52.4172
-52.6189
-52.8012
-52.9515
-53.1376
-51.3709
-51.3887
-51.4245
-51.4787
-51.5522
-51.6453
-51.7587
-51.8921
-52.0443
-52.2118
-52.389
-52.5667
-52.7321
-52.8671
-52.9073
-51.4254
-51.4424
-51.4766
-51.5281
-51.5974
-51.6847
-51.7899
-51.9124
-52.0505
-52.2014
-52.3606
-52.5231
-52.684
-52.8486
-53.0624
-51.4681
-51.4843
-51.5166
-51.5652
-51.6303
-51.7117
-51.8091
-51.9217
-52.0478
-52.1851
-52.3304
-52.4804
-52.6333
-52.796
-53.0073
-51.4997
-51.5149
-51.5453
-51.591
-51.6518
-51.7275
-51.8177
-51.9215
-52.0374
-52.1634
-52.2971
-52.4357
-52.5759
-52.7098
-52.7816
-51.5208
-51.535
-51.5635
-51.6062
-51.6629
-51.7334
-51.817
-51.9129
-52.0199
-52.1365
-52.2605
-52.39
-52.5226
-52.667
-52.9222
-51.5319
-51.5452
-51.5719
-51.6118
-51.6646
-51.7301
-51.8076
-51.8965
-51.9958
-52.1043
-52.2204
-52.342
-52.4613
-52.5472
-52.4438
-51.5338
-51.5462
-51.5711
-51.6083
-51.6575
-51.7183
-51.7904
-51.873
-51.9653
-52.0668
-52.1768
-52.2955
-52.4231
-52.5589
-52.6894
-51.527
-51.5386
-51.5618
-51.5965
-51.6423
-51.6989
-51.7658
-51.8426
-51.9285
-52.0233
-52.1272
-52.2428
-52.3791
-52.5744
-53.0255
-51.5121
-51.523
-51.5446
-51.5769
-51.6195
-51.6722
-51.7345
-51.8058
-51.8856
-51.9735
-52.0696
-52.1757
-52.2942
-52.4123
-52.3402
-51.4897
-51.4998
-51.52
-51.5501
-51.5898
-51.6389
-51.6968
-51.7631
-51.837
-51.9179
-52.0053
-52.1
-52.2096
-52.3823
-52.9395
-51.4602
-51.4696
-51.4885
-51.5166
-51.5537
-51.5994
-51.6534
-51.7151
-51.7836
-51.8578
-51.9358
-52.0139
-52.0811
-52.0852
-51.6905
-51.4241
-51.4329
-51.4505
-51.4768
-51.5114
-51.5542
-51.6047
-51.6623
-51.7262
-51.795
-51.8663
-51.9354
-51.9963
-52.0652
-52.403
-51.3818
-51.3901
-51.4066
-51.4311
-51.4636
-51.5036
-51.5509
-51.6051
-51.6653
-51.7305
-51.7983
-51.8627
-51.9058
-51.8586
-51.3849
-51.3338
-51.3415
-51.357
-51.38
-51.4104
-51.448
-51.4925
-51.5436
-51.601
-51.6642
-51.7325
-51.8046
-51.8781
-51.948
-52.0037
-51.2803
-51.2876
-51.302
-51.3236
-51.3521
-51.3875
-51.4294
-51.4778
-51.5327
-51.5944
-51.6641
-51.7456
-51.8528
-52.0473
-52.6617
-51.2218
-51.2286
-51.2421
-51.2624
-51.2892
-51.3223
-51.3618
-51.4074
-51.4596
-51.519
-51.5874
-51.6686
-51.7667
-51.8552
-51.6235
-51.1584
-51.1648
-51.1775
-51.1965
-51.2217
-51.2528
-51.2898
-51.3326
-51.3815
-51.4372
-51.5016
-51.58
-51.6874
-51.8852
-52.5484
-51.0905
-51.0965
-51.1085
-51.1264
-51.15
-51.1791
-51.2137
-51.2535
-51.2986
-51.3492
-51.4061
-51.4712
-51.5453
-51.592
-51.2334
-51.0184
-51.0241
-51.0353
-51.0522
-51.0743
-51.1017
-51.134
-51.1709
-51.212
-51.2567
-51.3046
-51.3561
-51.4222
-51.5802
-52.3716
-50.9422
-50.9476
-50.9583
-50.9741
-50.995
-51.0208
-51.051
-51.0853
-51.1228
-51.1621
-51.2002
-51.2307
-51.2353
-51.1284
-50.3657
-50.8622
-50.8673
-50.8774
-50.8925
-50.9123
-50.9366
-50.9652
-50.9974
-51.0324
-51.0682
-51.1009
-51.1233
-51.1259
-51.1319
-51.5261
-50.7786
-50.7835
-50.7931
-50.8074
-50.8263
-50.8495
-50.8768
-50.9077
-50.9414
-50.9762
-51.0086
-51.0295
-51.014
-50.8656
-50.1132
-50.6915
-50.6962
-50.7054
-50.7191
-50.7372
-50.7595
-50.7859
-50.816
-50.8496
-50.8859
-50.9238
-50.9609
-50.9944
-51.0187
-51.0273
-50.6011
-50.6055
-50.6144
-50.6276
-50.6451
-50.6667
-50.6923
-50.722
-50.7558
-50.7944
-50.8391
-50.8948
-50.9811
-51.1826
-51.949
-50.5074
-50.5117
-50.5203
-50.5331
-50.55
-50.5709
-50.5958
-50.625
-50.6589
-50.6985
-50.7464
-50.8074
-50.8877
-50.9539
-50.6023
-50.4106
-50.4148
-50.4231
-50.4355
-50.4519
-50.4722
-50.4965
-50.5248
-50.5579
-50.5967
-50.6441
-50.7065
-50.8042
-51.0152
-51.8152
-50.3108
-50.3149
-50.323
-50.335
-50.351
-50.3707
-50.3942
-50.4215
-50.4528
-50.4889
-50.5308
-50.5812
-50.6418
-50.6675
-50.1851
-50.208
-50.212
-50.2199
-50.2317
-50.2473
-50.2665
-50.2892
-50.3153
-50.3446
-50.3767
-50.4111
-50.4486
-50.5038
-50.6722
-51.6222
-50.1023
-50.1062
-50.114
-50.1256
-50.1409
-50.1597
-50.1818
-50.207
-50.2345
-50.2628
-50.2885
-50.3038
-50.2872
-50.1339
-49.1763
-49.9937
-49.9975
-50.0052
-50.0167
-50.0318
-50.0505
-50.0724
-50.0971
-50.1238
-50.1505
-50.1726
-50.1811
-50.1654
-50.1537
-50.6124
-49.8822
-49.886
-49.8937
-49.9051
-49.9202
-49.9389
-49.9608
-49.9859
-50.0132
-50.0412
-50.0654
-50.075
-50.0408
-49.8467
-48.9251
-49.7678
-49.7717
-49.7794
-49.7908
-49.806
-49.8248
-49.8472
-49.873
-49.9022
-49.9343
-49.9676
-49.9995
-50.0272
-50.0445
-50.0444
-49.6506
-49.6545
-49.6622
-49.6737
-49.689
-49.7081
-49.731
-49.7579
-49.7894
-49.8262
-49.87
-49.9268
-50.0209
-50.2541
-51.166
-49.5305
-49.5344
-49.5421
-49.5538
-49.5692
-49.5886
-49.612
-49.6398
-49.6729
-49.7129
-49.7627
-49.8283
-49.9179
-49.9919
-49.5672
-49.4074
-49.4113
-49.4192
-49.4309
-49.4466
-49.4661
-49.4898
-49.518
-49.5517
-49.5924
-49.6435
-49.713
-49.8257
-50.0757
-51.0325
-49.2814
-49.2854
-49.2933
-49.3052
-49.3209
-49.3407
-49.3644
-49.3926
-49.4256
-49.4645
-49.5108
-49.5677
-49.6382
-49.6683
-49.0918
-49.1524
-49.1564
-49.1645
-49.1764
-49.1924
-49.2122
-49.236
-49.2638
-49.2955
-49.3311
-49.3698
-49.413
-49.4786
-49.6818
-50.8268
-49.0204
-49.0245
-49.0326
-49.0447
-49.0608
-49.0808
-49.1047
-49.1323
-49.1629
-49.1951
-49.2249
-49.2427
-49.2234
-49.0409
-47.8918
-48.8853
-48.8895
-48.8977
-48.91
-48.9263
-48.9466
-48.9709
-48.9987
-49.0293
-49.0606
-49.0871
-49.0981
-49.0814
-49.0709
-49.6301
-48.7472
-48.7513
-48.7597
-48.7722
-48.7888
-48.8096
-48.8344
-48.8632
-48.8954
-48.9291
-48.9592
-48.9729
-48.9349
-48.705
-47.595
-48.6058
-48.61
-48.6185
-48.6312
-48.6482
-48.6694
-48.6952
-48.7254
-48.7604
-48.7997
-48.8417
-48.8833
-48.9218
-48.9496
-48.9573
-48.4612
-48.4655
-48.4741
-48.487
-48.5043
-48.5261
-48.5526
-48.5845
-48.6225
-48.668
-48.7234
-48.796
-48.916
-49.2078
-50.3285
-48.3134
-48.3178
-48.3264
-48.3395
-48.357
-48.3792
-48.4064
-48.4394
-48.4796
-48.5292
-48.592
-48.6757
-48.791
-48.8898
-48.3808
-48.1623
-48.1667
-48.1754
-48.1885
-48.2062
-48.2285
-48.2561
-48.2895
-48.3302
-48.3806
-48.445
-48.5335
-48.6774
-48.9934
-50.1838
-48.0079
-48.0123
-48.021
-48.0341
-48.0518
-48.0741
-48.1015
-48.1346
-48.1742
-48.222
-48.2801
-48.3528
-48.4444
-48.4892
-47.7874
-47.8502
-47.8545
-47.8632
-47.8763
-47.8938
-47.916
-47.943
-47.9751
-48.0127
-48.0558
-48.1039
-48.1589
-48.2438
-48.5028
-49.9372
-47.6891
-47.6934
-47.702
-47.715
-47.7324
-47.7543
-47.7809
-47.812
-47.8475
-47.8856
-47.9216
-47.9442
-47.9224
-47.6997
-46.2744
-47.5248
-47.529
-47.5375
-47.5503
-47.5675
-47.5892
-47.6154
-47.6461
-47.6805
-47.7165
-47.7474
-47.7603
-47.7404
-47.7312
-48.4385
-47.3571
-47.3613
-47.3697
-47.3823
-47.3992
-47.4206
-47.4467
-47.4776
-47.5127
-47.5504
-47.5844
-47.5991
-47.5511
-47.2645
-45.8758
-47.1863
-47.1904
-47.1985
-47.2108
-47.2275
-47.2486
-47.2747
-47.3062
-47.3434
-47.3863
-47.4335
-47.4814
-47.5273
-47.5625
-47.575
-47.0123
-47.0162
-47.0241
-47.0361
-47.0522
-47.073
-47.0989
-47.1308
-47.1701
-47.2189
-47.2807
-47.3652
-47.5111
-47.8756
-49.2873
-46.8353
-46.839
-46.8465
-46.858
-46.8735
-46.8936
-46.9188
-46.9505
-46.9905
-47.0421
-47.1107
-47.2062
-47.3429
-47.4608
-46.8154
-46.6553
-46.6588
-46.6659
-46.6766
-46.6913
-46.7103
-46.7343
-46.7644
-46.8028
-46.8529
-46.9205
-47.0188
-47.1879
-47.5755
-49.0685
-46.4725
-46.4757
-46.4823
-46.4922
-46.5058
-46.5232
-46.5453
-46.5728
-46.6073
-46.6511
-46.7075
-46.7821
-46.8811
-46.9218
-46.0231
-46.2871
-46.29
-46.2959
-46.3049
-46.3171
-46.3328
-46.3524
-46.3764
-46.4055
-46.4401
-46.4802
-46.5286
-46.6148
-46.9198
-48.6982
-46.0993
-46.1019
-46.1071
-46.115
-46.1257
-46.1394
-46.1563
-46.1766
-46.2
-46.2248
-46.2456
-46.2489
-46.1966
-45.8938
-44.0894
-45.9093
-45.9115
-45.916
-45.9227
-45.9318
-45.9435
-45.9578
-45.9748
-45.9937
-46.0118
-46.0217
-46.0077
-45.9522
-45.91
-46.7558
-45.7174
-45.7192
-45.7228
-45.7284
-45.7359
-45.7455
-45.7574
-45.7717
-45.788
-45.8041
-45.8128
-45.7952
-45.6987
-45.3089
-43.5666
-45.5238
-45.5252
-45.528
-45.5323
-45.5381
-45.5456
-45.5552
-45.5674
-45.5827
-45.601
-45.6205
-45.6374
-45.649
-45.6461
-45.6203
-45.3289
-45.3299
-45.3318
-45.3347
-45.3387
-45.344
-45.3512
-45.3611
-45.3754
-45.3964
-45.4284
-45.4835
-45.6092
-45.9984
-47.6611
-45.133
-45.1335
-45.1344
-45.1359
-45.1379
-45.1408
-45.1451
-45.152
-45.1635
-45.1837
-45.2186
-45.2805
-45.3865
-45.4654
-44.6271
-44.9363
-44.9363
-44.9363
-44.9363
-44.9362
-44.9364
-44.9371
-44.9396
-44.946
-44.96
-44.9885
-45.0469
-45.1825
-45.5687
-47.2507
-44.7392
-44.7388
-44.7378
-44.7363
-44.734
-44.7312
-44.7279
-44.7248
-44.7233
-44.7258
-44.7358
-44.7598
-44.8044
-44.7714
-43.6358
-44.542
-44.5411
-44.5393
-44.5363
-44.5319
-44.526
-44.5183
-44.509
-44.4982
-44.4858
-44.4715
-44.4586
-44.48
-44.7391
-46.6492
-44.3451
-44.3438
-44.3411
-44.3368
-44.3304
-44.3216
-44.3099
-44.2945
-44.2742
-44.2465
-44.2046
-44.1333
-43.9907
-43.5596
-41.4467
-44.1486
-44.147
-44.1436
-44.1382
-44.1303
-44.1191
-44.1039
-44.0834
-44.0557
-44.0165
-43.9564
-43.8577
-43.7017
-43.547
-44.3299
-43.9527
-43.9509
-43.9472
-43.941
-43.9319
-43.919
-43.9014
-43.8775
-43.8453
-43.8004
-43.7331
-43.6219
-43.4118
-42.8824
-40.9401
-43.7577
-43.7559
-43.7519
-43.7454
-43.7357
-43.722
-43.7031
-43.6777
-43.6439
-43.5992
-43.5385
-43.4548
-43.3437
-43.1982
-43.029
-43.5636
-43.5618
-43.558
-43.5516
-43.542
-43.5282
-43.5092
-43.4837
-43.4504
-43.4085
-43.358
-43.3067
-43.2995
-43.5294
-45.006
-43.3703
-43.3687
-43.3653
-43.3595
-43.3507
-43.3378
-43.3198
-43.2953
-43.2632
-43.2232
-43.1762
-43.128
-43.0905
-42.9942
-42.0025
-43.1777
-43.1765
-43.1738
-43.1691
-43.1618
-43.1507
-43.1347
-43.1122
-43.0817
-43.042
-42.9933
-42.942
-42.9225
-43.0798
-44.3274
-42.9856
-42.9849
-42.9832
-42.9801
-42.975
-42.9668
-42.9541
-42.9349
-42.9068
-42.8666
-42.8103
-42.7338
-42.6317
-42.4074
-41.1954
-42.7935
-42.7934
-42.7931
-42.7921
-42.79
-42.7857
-42.7778
-42.7639
-42.7405
-42.7019
-42.6393
-42.5435
-42.4259
-42.4199
-43.5561
-42.6011
-42.6017
-42.6029
-42.6045
-42.606
-42.6068
-42.6055
-42.5997
-42.585
-42.5532
-42.4894
-42.3683
-42.1427
-41.6383
-39.8658
-42.4077
-42.4092
-42.412
-42.4164
-42.4221
-42.4291
-42.4363
-42.4419
-42.4415
-42.426
-42.3775
-42.2657
-42.0531
-41.7365
-41.7959
-42.213
-42.2152
-42.2197
-42.2268
-42.237
-42.2508
-42.2682
-42.2885
-42.3088
-42.3212
-42.3077
-42.2331
-42.0357
-41.5726
-40.3391
-42.0163
-42.0191
-42.025
-42.0346
-42.0491
-42.0696
-42.0978
-42.1352
-42.1817
-42.2338
-42.2784
-42.2857
-42.2029
-41.9427
-41.4652
-41.8173
-41.8204
-41.8272
-41.8387
-41.8564
-41.8828
-41.9211
-41.9756
-42.051
-42.1509
-42.273
-42.401
-42.4932
-42.4629
-42.2655
-41.6156
-41.6188
-41.6258
-41.6379
-41.6573
-41.6874
-41.7331
-41.8018
-41.9035
-42.0519
-42.2615
-42.5412
-42.8687
-43.0983
-42.8726
-41.4113
-41.4141
-41.4204
-41.4316
-41.4504
-41.4808
-41.5291
-41.605
-41.7239
-41.9097
-42.1994
-42.6482
-43.3122
-44.0491
-43.3902
-41.2047
-41.2066
-41.211
-41.2196
-41.235
-41.2615
-41.3057
-41.3786
-41.498
-41.6946
-42.0251
-42.6057
-43.7051
-45.9684
-50.9703
-40.9963
-40.9968
-40.9984
-41.0025
-41.0116
-41.0295
-41.0624
-41.12
-41.2186
-41.386
-41.675
-42.2029
-43.29
-45.9848
-54.5152
-56.1598
-47.4145
-44.6232
-43.4833
-42.9196
-42.6037
-42.4147
-42.2984
-42.2263
-42.1816
-42.1543
-42.1379
-42.1285
-42.1235
-42.1213
-52.8941
-47.424
-45.0267
-43.8662
-43.2465
-42.8876
-42.6686
-42.5313
-42.4439
-42.3881
-42.3526
-42.3302
-42.3166
-42.3088
-42.3053
-44.3077
-45.2985
-44.5717
-43.8735
-43.3907
-43.0735
-42.8658
-42.7295
-42.6396
-42.5803
-42.5414
-42.5161
-42.5001
-42.4908
-42.4865
-44.1634
-44.3649
-44.0972
-43.7311
-43.4183
-43.1826
-43.0136
-42.8955
-42.814
-42.7582
-42.7202
-42.6949
-42.6786
-42.6688
-42.6643
-43.8847
-43.7561
-43.6914
-43.5515
-43.3907
-43.2446
-43.1262
-43.0363
-42.9704
-42.9232
-42.89
-42.8671
-42.852
-42.8428
-42.8385
-42.4546
-43.102
-43.3382
-43.3863
-43.3513
-43.2865
-43.219
-43.1605
-43.1138
-43.0783
-43.0522
-43.0335
-43.0209
-43.013
-43.0093
-41.8264
-42.7327
-43.116
-43.2784
-43.3311
-43.3295
-43.3058
-43.2767
-43.2494
-43.2266
-43.2087
-43.1953
-43.1859
-43.18
-43.1771
-42.5578
-42.7255
-43.0475
-43.2466
-43.3469
-43.3873
-43.3964
-43.3916
-43.3818
-43.3712
-43.3617
-43.3539
-43.3481
-43.3443
-43.3424
-41.1946
-42.6102
-43.0646
-43.2833
-43.4028
-43.4659
-43.4967
-43.5102