/*--------------------------------*- C++ -*----------------------------------*\
| =========                 |                                                 |
| \\      /  F ield         | OpenFOAM: The Open Source CFD Toolbox           |
|  \\    /   O peration     | Version:  5.x                                   |
|   \\  /    A nd           | Web:      www.OpenFOAM.org                      |
|    \\/     M anipulation  |                                                 |
\*---------------------------------------------------------------------------*/
FoamFile
{
    version     2.0;
    format      ascii;
    class       volScalarField;
    location    "3.6";
    object      T;
}
// * * * * * * * * * * * * * * * * * * * * * * * * * * * * * * * * * * * * * //

dimensions      [0 0 0 1 0 0 0];

internalField   nonuniform List<scalar> 
6300
(
322.758
322.273
321.79
321.306
320.823
320.342
319.861
319.382
318.904
318.428
317.955
317.483
317.014
316.547
316.083
322.758
322.273
321.789
321.305
320.822
320.34
319.86
319.38
318.902
318.426
317.952
317.481
317.011
316.544
316.08
322.757
322.273
321.788
321.304
320.82
320.338
319.857
319.377
318.899
318.422
317.948
317.476
317.006
316.539
316.074
322.757
322.272
321.786
321.302
320.818
320.335
319.853
319.372
318.893
318.416
317.941
317.469
316.998
316.531
316.066
322.757
322.27
321.784
321.299
320.814
320.33
319.847
319.366
318.886
318.408
317.932
317.459
316.988
316.52
316.055
322.756
322.269
321.782
321.295
320.809
320.324
319.84
319.357
318.877
318.398
317.921
317.447
316.975
316.506
316.04
322.756
322.267
321.779
321.291
320.803
320.317
319.832
319.348
318.865
318.385
317.907
317.431
316.959
316.489
316.023
322.755
322.265
321.775
321.286
320.797
320.309
319.822
319.336
318.852
318.37
317.89
317.414
316.94
316.469
316.003
322.754
322.262
321.771
321.28
320.789
320.3
319.811
319.323
318.837
318.353
317.871
317.392
316.917
316.446
315.979
322.753
322.26
321.767
321.274
320.781
320.289
319.798
319.309
318.82
318.333
317.849
317.368
316.89
316.418
315.95
322.752
322.257
321.762
321.267
320.773
320.278
319.785
319.292
318.801
318.311
317.824
317.339
316.859
316.385
315.917
322.751
322.254
321.757
321.26
320.763
320.267
319.771
319.275
318.781
318.287
317.796
317.307
316.822
316.344
315.876
322.75
322.251
321.752
321.253
320.754
320.255
319.756
319.257
318.759
318.261
317.764
317.27
316.779
316.295
315.824
322.749
322.248
321.747
321.246
320.744
320.243
319.741
319.239
318.736
318.234
317.731
317.229
316.728
316.233
315.754
322.748
322.245
321.742
321.239
320.735
320.231
319.726
319.221
318.714
318.207
317.697
317.186
316.672
316.156
315.649
315.66
315.278
314.897
314.519
314.143
313.769
313.398
313.029
312.663
312.3
311.94
311.583
311.229
310.879
310.532
310.188
309.848
309.512
309.18
308.852
308.527
308.205
307.888
307.574
307.263
306.955
306.651
306.349
306.051
305.755
305.461
305.169
304.88
304.593
304.307
304.024
303.742
303.461
303.182
302.904
302.627
302.352
302.077
301.804
301.531
301.26
300.989
300.72
300.451
300.183
299.916
299.649
299.382
299.117
298.851
298.585
298.32
298.054
297.789
297.523
297.256
296.989
296.722
296.453
296.184
295.914
295.643
295.372
295.099
294.824
294.549
294.273
293.995
293.715
293.434
293.152
292.868
292.583
292.296
292.007
291.716
291.423
291.129
290.832
290.534
290.233
289.93
289.625
289.318
289.009
315.657
315.275
314.894
314.516
314.14
313.766
313.394
313.026
312.659
312.296
311.935
311.578
311.224
310.873
310.526
310.183
309.843
309.507
309.175
308.846
308.521
308.2
307.883
307.569
307.258
306.951
306.647
306.345
306.047
305.751
305.457
305.166
304.877
304.59
304.305
304.021
303.739
303.459
303.18
302.902
302.625
302.35
302.076
301.802
301.53
301.259
300.988
300.719
300.45
300.182
299.915
299.648
299.382
299.116
298.85
298.585
298.32
298.055
297.789
297.523
297.257
296.99
296.722
296.454
296.185
295.916
295.645
295.373
295.1
294.826
294.551
294.274
293.996
293.717
293.437
293.154
292.871
292.585
292.298
292.009
291.718
291.426
291.131
290.835
290.537
290.236
289.933
289.628
289.321
289.012
315.651
315.269
314.888
314.509
314.133
313.759
313.387
313.018
312.651
312.287
311.926
311.569
311.214
310.863
310.516
310.172
309.832
309.496
309.164
308.835
308.511
308.19
307.873
307.559
307.249
306.942
306.638
306.337
306.039
305.744
305.451
305.16
304.871
304.585
304.3
304.017
303.735
303.455
303.176
302.898
302.622
302.346
302.072
301.799
301.527
301.256
300.985
300.716
300.447
300.18
299.913
299.646
299.38
299.115
298.85
298.585
298.32
298.055
297.79
297.524
297.258
296.991
296.724
296.456
296.188
295.918
295.647
295.376
295.103
294.829
294.554
294.278
294
293.721
293.441
293.159
292.875
292.59
292.303
292.014
291.724
291.431
291.137
290.841
290.542
290.242
289.939
289.634
289.327
289.018
315.643
315.26
314.879
314.5
314.123
313.748
313.376
313.006
312.639
312.274
311.913
311.554
311.199
310.848
310.5
310.156
309.816
309.48
309.147
308.819
308.495
308.174
307.857
307.544
307.234
306.928
306.625
306.325
306.027
305.733
305.441
305.151
304.863
304.576
304.292
304.009
303.728
303.448
303.17
302.893
302.616
302.341
302.067
301.794
301.522
301.251
300.981
300.712
300.444
300.176
299.91
299.644
299.378
299.113
298.849
298.584
298.32
298.055
297.79
297.525
297.26
296.994
296.727
296.459
296.191
295.922
295.651
295.38
295.108
294.834
294.559
294.283
294.006
293.727
293.447
293.165
292.882
292.597
292.31
292.022
291.731
291.439
291.145
290.849
290.551
290.251
289.948
289.644
289.337
289.027
315.631
315.248
314.866
314.487
314.11
313.735
313.362
312.991
312.622
312.257
311.894
311.535
311.179
310.827
310.479
310.134
309.794
309.457
309.125
308.797
308.473
308.153
307.836
307.524
307.215
306.91
306.607
306.308
306.012
305.718
305.427
305.138
304.851
304.566
304.282
304
303.719
303.44
303.162
302.885
302.609
302.335
302.061
301.788
301.516
301.245
300.975
300.706
300.439
300.172
299.905
299.64
299.375
299.111
298.847
298.583
298.32
298.056
297.792
297.527
297.262
296.997
296.73
296.463
296.195
295.926
295.657
295.386
295.114
294.841
294.566
294.29
294.013
293.735
293.455
293.174
292.891
292.606
292.32
292.032
291.742
291.45
291.156
290.861
290.563
290.263
289.96
289.656
289.349
289.04
315.616
315.233
314.851
314.472
314.094
313.718
313.344
312.972
312.602
312.235
311.871
311.511
311.154
310.801
310.452
310.107
309.766
309.429
309.097
308.769
308.445
308.125
307.81
307.498
307.191
306.886
306.586
306.288
305.993
305.7
305.41
305.122
304.837
304.552
304.27
303.988
303.709
303.43
303.152
302.876
302.601
302.326
302.053
301.78
301.509
301.238
300.968
300.699
300.432
300.166
299.9
299.635
299.371
299.108
298.845
298.582
298.319
298.057
297.793
297.53
297.266
297.001
296.735
296.468
296.201
295.933
295.663
295.393
295.121
294.849
294.575
294.299
294.023
293.745
293.465
293.184
292.902
292.618
292.332
292.044
291.755
291.463
291.17
290.875
290.577
290.278
289.976
289.672
289.365
289.055
315.599
315.215
314.833
314.453
314.075
313.698
313.323
312.949
312.578
312.209
311.843
311.481
311.123
310.769
310.419
310.073
309.732
309.395
309.063
308.735
308.411
308.092
307.778
307.468
307.161
306.858
306.559
306.263
305.97
305.679
305.39
305.104
304.82
304.537
304.255
303.975
303.696
303.418
303.141
302.865
302.591
302.317
302.043
301.771
301.499
301.229
300.959
300.691
300.424
300.158
299.893
299.63
299.367
299.104
298.843
298.581
298.319
298.058
297.796
297.533
297.27
297.005
296.74
296.475
296.208
295.94
295.671
295.402
295.131
294.858
294.585
294.31
294.034
293.756
293.477
293.197
292.915
292.632
292.346
292.059
291.77
291.479
291.187
290.892
290.595
290.296
289.995
289.691
289.384
289.075
315.578
315.195
314.813
314.433
314.054
313.676
313.299
312.924
312.55
312.179
311.811
311.446
311.086
310.73
310.379
310.033
309.691
309.354
309.022
308.694
308.371
308.053
307.74
307.431
307.126
306.825
306.528
306.234
305.943
305.654
305.367
305.083
304.8
304.519
304.238
303.959
303.681
303.404
303.128
302.853
302.579
302.306
302.033
301.76
301.489
301.218
300.948
300.68
300.414
300.149
299.885
299.622
299.361
299.1
298.84
298.579
298.319
298.059
297.798
297.537
297.275
297.011
296.747
296.482
296.216
295.949
295.681
295.412
295.142
294.87
294.597
294.323
294.047
293.77
293.492
293.212
292.931
292.648
292.363
292.077
291.788
291.498
291.206
290.912
290.616
290.318
290.017
289.714
289.407
289.098
315.554
315.171
314.79
314.41
314.031
313.652
313.274
312.896
312.519
312.144
311.772
311.405
311.042
310.685
310.333
309.986
309.644
309.306
308.974
308.646
308.324
308.007
307.695
307.388
307.086
306.787
306.492
306.2
305.912
305.625
305.342
305.06
304.779
304.499
304.22
303.942
303.665
303.389
303.114
302.84
302.567
302.294
302.021
301.749
301.476
301.205
300.935
300.667
300.401
300.137
299.875
299.614
299.354
299.095
298.836
298.578
298.32
298.061
297.802
297.542
297.281
297.019
296.755
296.49
296.225
295.959
295.692
295.424
295.154
294.883
294.611
294.337
294.061
293.785
293.507
293.229
292.949
292.667
292.383
292.097
291.809
291.519
291.228
290.935
290.64
290.343
290.044
289.741
289.435
289.126
315.527
315.145
314.765
314.387
314.008
313.629
313.248
312.866
312.484
312.104
311.728
311.356
310.991
310.632
310.28
309.933
309.59
309.252
308.919
308.59
308.268
307.953
307.643
307.339
307.04
306.744
306.452
306.163
305.877
305.594
305.313
305.034
304.756
304.478
304.201
303.923
303.647
303.372
303.098
302.826
302.554
302.282
302.009
301.736
301.463
301.19
300.919
300.651
300.385
300.123
299.862
299.604
299.346
299.089
298.832
298.576
298.32
298.064
297.807
297.549
297.289
297.028
296.764
296.5
296.235
295.97
295.704
295.438
295.169
294.899
294.627
294.353
294.077
293.801
293.525
293.248
292.969
292.689
292.406
292.12
291.832
291.543
291.252
290.96
290.667
290.372
290.074
289.773
289.468
289.159
315.495
315.115
314.738
314.363
313.987
313.607
313.223
312.836
312.447
312.059
311.676
311.299
310.93
310.571
310.219
309.872
309.53
309.191
308.856
308.526
308.204
307.89
307.583
307.283
306.988
306.696
306.407
306.121
305.838
305.558
305.282
305.007
304.733
304.457
304.181
303.903
303.627
303.352
303.08
302.81
302.541
302.27
301.998
301.723
301.448
301.173
300.9
300.631
300.366
300.105
299.848
299.592
299.337
299.082
298.827
298.573
298.32
298.067
297.814
297.559
297.3
297.039
296.775
296.51
296.245
295.981
295.718
295.454
295.187
294.918
294.645
294.37
294.094
293.818
293.543
293.268
292.993
292.714
292.432
292.147
291.858
291.568
291.277
290.987
290.696
290.405
290.11
289.81
289.506
289.197
315.456
315.081
314.71
314.341
313.97
313.591
313.204
312.808
312.408
312.008
311.614
311.229
310.857
310.498
310.149
309.806
309.464
309.123
308.784
308.452
308.128
307.816
307.513
307.22
306.932
306.645
306.358
306.073
305.793
305.518
305.248
304.981
304.711
304.438
304.161
303.883
303.604
303.33
303.06
302.794
302.529
302.261
301.989
301.712
301.433
301.152
300.875
300.604
300.34
300.082
299.83
299.58
299.328
299.075
298.821
298.569
298.319
298.072
297.824
297.572
297.315
297.053
296.787
296.519
296.254
295.992
295.732
295.473
295.209
294.941
294.667
294.39
294.111
293.834
293.561
293.29
293.02
292.744
292.464
292.177
291.886
291.593
291.302
291.014
290.728
290.442
290.151
289.855
289.552
289.244
315.409
315.042
314.678
314.323
313.964
313.586
313.196
312.787
312.371
311.948
311.538
311.141
310.767
310.41
310.072
309.739
309.398
309.053
308.703
308.365
308.037
307.727
307.431
307.15
306.874
306.592
306.307
306.019
305.741
305.47
305.212
304.957
304.693
304.423
304.144
303.861
303.576
303.3
303.032
302.776
302.522
302.258
301.987
301.705
301.418
301.127
300.843
300.566
300.304
300.051
299.81
299.569
299.321
299.069
298.812
298.56
298.314
298.077
297.84
297.593
297.338
297.072
296.801
296.526
296.258
295.997
295.747
295.498
295.238
294.971
294.693
294.411
294.124
293.845
293.574
293.313
293.053
292.782
292.504
292.213
291.917
291.616
291.323
291.036
290.761
290.486
290.2
289.908
289.604
289.299
315.345
314.999
314.633
314.31
313.983
313.601
313.215
312.776
312.344
311.868
311.443
311.02
310.652
310.293
309.987
309.683
309.336
308.99
308.606
308.262
307.919
307.618
307.325
307.074
306.825
306.542
306.26
305.951
305.676
305.405
305.173
304.944
304.683
304.422
304.13
303.845
303.534
303.259
302.988
302.756
302.527
302.265
302.002
301.704
301.412
301.089
300.799
300.509
300.254
300.004
299.787
299.57
299.32
299.071
298.793
298.544
298.297
298.083
297.87
297.624
297.377
297.097
296.822
296.52
296.253
295.988
295.761
295.536
295.278
295.018
294.726
294.439
294.125
293.846
293.571
293.335
293.101
292.832
292.562
292.256
291.956
291.627
291.333
291.043
290.793
290.545
290.26
289.976
289.661
289.367
315.246
314.985
314.526
314.304
314.082
313.623
313.309
312.754
312.381
311.713
311.348
310.819
310.524
310.103
309.897
309.692
309.271
308.98
308.452
308.161
307.737
307.499
307.16
306.993
306.827
306.488
306.254
305.834
305.606
305.284
305.128
304.977
304.674
304.467
304.107
303.866
303.44
303.21
302.888
302.732
302.58
302.275
302.065
301.697
301.448
301.003
300.757
300.4
300.198
299.908
299.764
299.619
299.319
299.111
298.734
298.527
298.231
298.088
297.946
297.659
297.462
297.114
296.881
296.467
296.242
295.925
295.772
295.622
295.32
295.113
294.749
294.506
294.075
293.841
293.512
293.353
293.198
292.884
292.669
292.292
292.038
291.585
291.339
290.991
290.822
290.656
290.319
290.089
289.686
289.461
288.667
288.29
287.911
287.529
287.144
286.756
286.367
285.976
285.582
285.188
284.792
284.395
283.997
283.598
283.199
288.67
288.293
287.913
287.531
287.146
286.759
286.369
285.977
285.584
285.189
284.793
284.395
283.997
283.599
283.2
288.676
288.299
287.919
287.536
287.151
286.763
286.373
285.981
285.587
285.191
284.795
284.397
283.998
283.599
283.2
288.685
288.307
287.927
287.544
287.158
286.769
286.379
285.986
285.591
285.195
284.798
284.399
284
283.6
283.2
288.697
288.319
287.938
287.554
287.168
286.778
286.387
285.993
285.597
285.2
284.802
284.402
284.002
283.602
283.201
288.712
288.334
287.953
287.568
287.18
286.789
286.396
286.001
285.605
285.206
284.807
284.406
284.005
283.603
283.201
288.731
288.352
287.97
287.584
287.195
286.803
286.408
286.012
285.613
285.214
284.813
284.411
284.008
283.605
283.202
288.754
288.375
287.991
287.603
287.212
286.819
286.422
286.024
285.624
285.222
284.82
284.416
284.012
283.607
283.203
288.782
288.401
288.015
287.626
287.233
286.837
286.438
286.038
285.635
285.232
284.828
284.422
284.016
283.61
283.203
288.814
288.432
288.044
287.652
287.256
286.857
286.456
286.053
285.648
285.243
284.836
284.429
284.021
283.613
283.204
288.852
288.468
288.078
287.682
287.283
286.88
286.476
286.07
285.663
285.254
284.845
284.436
284.026
283.616
283.205
288.898
288.511
288.116
287.716
287.312
286.905
286.497
286.088
285.678
285.267
284.855
284.443
284.031
283.619
283.206
288.953
288.561
288.16
287.753
287.343
286.932
286.519
286.107
285.693
285.279
284.865
284.451
284.037
283.622
283.207
289.023
288.621
288.209
287.793
287.376
286.959
286.542
286.126
285.709
285.293
284.876
284.459
284.042
283.625
283.208
289.119
288.692
288.262
287.834
287.409
286.987
286.565
286.145
285.725
285.306
284.886
284.467
284.048
283.629
283.21
322.748
322.243
321.738
321.232
320.726
320.22
319.713
319.205
318.695
318.183
317.669
317.149
316.622
316.078
315.49
322.747
322.24
321.734
321.227
320.719
320.211
319.702
319.191
318.679
318.164
317.646
317.122
316.588
316.038
315.452
322.746
322.238
321.73
321.222
320.713
320.203
319.692
319.179
318.665
318.147
317.627
317.1
316.566
316.022
315.467
322.745
322.236
321.727
321.217
320.707
320.195
319.683
319.168
318.652
318.133
317.611
317.084
316.552
316.013
315.469
322.745
322.235
321.724
321.213
320.701
320.189
319.675
319.159
318.642
318.122
317.599
317.072
316.541
316.007
315.47
322.744
322.233
321.721
321.209
320.696
320.183
319.668
319.151
318.633
318.112
317.589
317.063
316.534
316.002
315.469
322.744
322.232
321.719
321.206
320.692
320.178
319.662
319.145
318.626
318.105
317.581
317.056
316.528
315.998
315.467
322.744
322.23
321.717
321.203
320.689
320.173
319.657
319.139
318.62
318.099
317.575
317.05
316.523
315.994
315.464
322.743
322.229
321.715
321.201
320.686
320.17
319.653
319.135
318.615
318.094
317.571
317.046
316.519
315.991
315.462
322.743
322.229
321.714
321.199
320.683
320.167
319.65
319.131
318.612
318.09
317.568
317.043
316.517
315.989
315.46
322.743
322.228
321.713
321.198
320.682
320.165
319.647
319.129
318.609
318.088
317.565
317.041
316.516
315.989
315.46
322.743
322.227
321.712
321.197
320.68
320.164
319.646
319.127
318.607
318.086
317.564
317.04
316.515
315.989
315.461
322.742
322.227
321.712
321.196
320.68
320.163
319.645
319.126
318.607
318.086
317.564
317.041
316.516
315.99
315.463
322.742
322.227
321.711
321.196
320.679
320.162
319.645
319.126
318.607
318.086
317.565
317.042
316.518
315.993
315.467
322.742
322.227
321.711
321.196
320.679
320.162
319.645
319.127
318.607
318.087
317.566
317.044
316.52
315.995
315.469
322.742
322.227
321.712
321.196
320.68
320.163
319.646
319.128
318.609
318.089
317.568
317.047
316.524
315.999
315.472
322.742
322.227
321.712
321.196
320.68
320.164
319.647
319.129
318.611
318.092
317.571
317.05
316.528
316.004
315.48
322.743
322.228
321.713
321.197
320.682
320.165
319.649
319.132
318.614
318.095
317.575
317.055
316.533
316.01
315.486
322.743
322.228
321.713
321.198
320.683
320.167
319.651
319.134
318.617
318.099
317.58
317.06
316.539
316.018
315.498
322.743
322.229
321.714
321.2
320.685
320.169
319.654
319.137
318.62
318.103
317.584
317.065
316.546
316.026
315.504
322.743
322.229
321.715
321.201
320.687
320.172
319.657
319.141
318.625
318.108
317.59
317.072
316.553
316.033
315.515
322.743
322.23
321.717
321.203
320.689
320.175
319.66
319.145
318.629
318.113
317.596
317.078
316.56
316.041
315.521
322.744
322.231
321.718
321.205
320.691
320.178
319.664
319.149
318.634
318.118
317.602
317.085
316.567
316.048
315.526
322.744
322.232
321.719
321.207
320.694
320.181
319.668
319.154
318.639
318.125
317.609
317.093
316.576
316.058
315.539
322.744
322.233
321.721
321.209
320.697
320.185
319.672
319.159
318.645
318.131
317.617
317.101
316.585
316.067
315.547
322.745
322.234
321.723
321.211
320.7
320.188
319.677
319.164
318.651
318.138
317.624
317.11
316.595
316.079
315.563
322.745
322.235
321.724
321.214
320.703
320.193
319.681
319.17
318.658
318.146
317.633
317.12
316.606
316.091
315.574
322.745
322.236
321.726
321.217
320.707
320.197
319.686
319.176
318.665
318.153
317.641
317.129
316.617
316.105
315.594
322.746
322.237
321.728
321.22
320.71
320.201
319.692
319.182
318.672
318.161
317.65
317.139
316.628
316.117
315.605
322.746
322.238
321.73
321.222
320.714
320.206
319.697
319.188
318.679
318.17
317.66
317.149
316.639
316.129
315.622
322.747
322.24
321.733
321.226
320.718
320.211
319.703
319.195
318.687
318.178
317.669
317.16
316.65
316.14
315.629
322.747
322.241
321.735
321.229
320.722
320.216
319.709
319.202
318.695
318.187
317.679
317.17
316.661
316.15
315.637
322.747
322.242
321.737
321.232
320.727
320.221
319.715
319.209
318.703
318.196
317.689
317.181
316.673
316.163
315.653
322.748
322.244
321.74
321.235
320.731
320.226
319.722
319.216
318.711
318.205
317.699
317.192
316.685
316.176
315.665
322.748
322.245
321.742
321.239
320.735
320.232
319.728
319.224
318.72
318.215
317.71
317.204
316.698
316.191
315.685
322.749
322.247
321.745
321.242
320.74
320.238
319.735
319.232
318.728
318.225
317.721
317.217
316.712
316.207
315.699
322.749
322.248
321.747
321.246
320.745
320.243
319.742
319.24
318.738
318.235
317.732
317.229
316.726
316.224
315.724
322.75
322.25
321.75
321.25
320.75
320.249
319.749
319.248
318.747
318.245
317.744
317.242
316.74
316.239
315.737
322.751
322.252
321.753
321.254
320.755
320.255
319.756
319.256
318.756
318.256
317.755
317.255
316.754
316.254
315.757
322.751
322.253
321.756
321.258
320.76
320.262
319.763
319.265
318.766
318.267
317.767
317.267
316.767
316.267
315.766
322.752
322.255
321.759
321.262
320.765
320.268
319.771
319.274
318.776
318.278
317.779
317.28
316.781
316.28
315.776
322.752
322.257
321.762
321.266
320.771
320.275
319.779
319.283
318.786
318.289
317.792
317.294
316.795
316.296
315.795
322.753
322.259
321.765
321.271
320.776
320.282
319.787
319.292
318.796
318.301
317.805
317.308
316.81
316.311
315.809
322.754
322.261
321.768
321.275
320.782
320.288
319.795
319.301
318.807
318.313
317.818
317.322
316.826
316.33
315.833
322.754
322.263
321.771
321.279
320.788
320.296
319.803
319.311
318.818
318.325
317.831
317.338
316.843
316.348
315.85
322.755
322.265
321.774
321.284
320.794
320.303
319.812
319.321
318.829
318.337
317.845
317.353
316.86
316.369
315.88
322.756
322.267
321.778
321.289
320.8
320.31
319.821
319.331
318.841
318.35
317.859
317.368
316.878
316.387
315.896
322.756
322.269
321.781
321.294
320.806
320.318
319.83
319.341
318.852
318.363
317.874
317.384
316.894
316.405
315.92
322.757
322.271
321.785
321.299
320.812
320.326
319.839
319.352
318.864
318.376
317.888
317.4
316.911
316.421
315.932
322.758
322.273
321.788
321.304
320.819
320.334
319.848
319.362
318.876
318.39
317.903
317.416
316.927
316.437
315.943
322.758
322.275
321.792
321.309
320.825
320.342
319.858
319.373
318.889
318.404
317.918
317.432
316.945
316.456
315.967
322.759
322.278
321.796
321.314
320.832
320.35
319.868
319.385
318.902
318.418
317.934
317.449
316.963
316.476
315.984
322.76
322.28
321.8
321.319
320.839
320.358
319.878
319.396
318.915
318.433
317.95
317.467
316.983
316.498
316.014
322.761
322.282
321.804
321.325
320.846
320.367
319.888
319.408
318.928
318.448
317.967
317.486
317.004
316.521
316.034
322.762
322.285
321.808
321.331
320.853
320.376
319.898
319.42
318.942
318.463
317.984
317.505
317.025
316.547
316.071
322.762
322.287
321.812
321.336
320.861
320.385
319.909
319.433
318.956
318.479
318.002
317.524
317.047
316.569
316.092
322.763
322.29
321.816
321.342
320.868
320.394
319.92
319.445
318.97
318.495
318.019
317.543
317.067
316.592
316.122
322.764
322.292
321.82
321.348
320.876
320.404
319.931
319.458
318.985
318.511
318.037
317.563
317.088
316.612
316.136
322.765
322.295
321.825
321.354
320.884
320.413
319.942
319.471
319
318.528
318.055
317.582
317.108
316.632
316.151
322.766
322.297
321.829
321.361
320.892
320.423
319.954
319.485
319.015
318.545
318.074
317.603
317.13
316.656
316.181
322.767
322.3
321.834
321.367
320.9
320.433
319.966
319.498
319.031
318.562
318.093
317.624
317.153
316.68
316.202
322.768
322.303
321.838
321.373
320.908
320.443
319.978
319.512
319.046
318.58
318.113
317.646
317.178
316.708
316.239
322.769
322.306
321.843
321.38
320.917
320.453
319.99
319.526
319.062
318.598
318.134
317.669
317.203
316.736
316.265
322.77
322.309
321.847
321.386
320.925
320.464
320.002
319.541
319.079
318.617
318.154
317.692
317.229
316.768
316.311
322.77
322.311
321.852
321.393
320.934
320.474
320.015
319.555
319.095
318.635
318.175
317.715
317.255
316.796
316.337
322.771
322.314
321.857
321.4
320.942
320.485
320.028
319.57
319.112
318.654
318.196
317.738
317.28
316.824
316.374
322.772
322.317
321.862
321.407
320.951
320.496
320.04
319.585
319.129
318.673
318.217
317.761
317.304
316.848
316.391
322.773
322.32
321.867
321.413
320.96
320.507
320.053
319.6
319.146
318.692
318.238
317.784
317.328
316.871
316.408
322.774
322.323
321.872
321.42
320.969
320.518
320.066
319.615
319.163
318.711
318.259
317.807
317.354
316.899
316.445
322.775
322.326
321.877
321.427
320.978
320.529
320.079
319.63
319.18
318.731
318.281
317.831
317.38
316.927
316.469
322.776
322.329
321.882
321.434
320.987
320.539
320.092
319.645
319.198
318.75
318.303
317.856
317.408
316.96
316.513
322.777
322.332
321.886
321.441
320.996
320.55
320.105
319.66
319.215
318.77
318.325
317.881
317.436
316.991
316.541
322.778
322.335
321.891
321.448
321.005
320.561
320.118
319.675
319.232
318.79
318.347
317.906
317.465
317.026
316.594
322.779
322.338
321.896
321.455
321.014
320.572
320.131
319.69
319.25
318.809
318.369
317.93
317.492
317.056
316.621
322.78
322.341
321.901
321.462
321.022
320.583
320.144
319.705
319.266
318.828
318.39
317.954
317.518
317.085
316.66
322.781
322.344
321.906
321.469
321.031
320.594
320.157
319.72
319.283
318.847
318.411
317.976
317.542
317.109
316.678
322.782
322.347
321.911
321.475
321.04
320.605
320.169
319.734
319.3
318.865
318.432
317.998
317.565
317.132
316.695
322.783
322.349
321.916
321.482
321.049
320.615
320.182
319.749
319.316
318.883
318.451
318.02
317.589
317.158
316.729
322.784
322.352
321.921
321.489
321.057
320.626
320.194
319.763
319.332
318.901
318.471
318.041
317.612
317.183
316.751
322.785
322.355
321.925
321.496
321.066
320.636
320.206
319.777
319.348
318.919
318.49
318.063
317.636
317.21
316.788
322.786
322.358
321.93
321.502
321.074
320.646
320.219
319.791
319.363
318.936
318.509
318.083
317.658
317.235
316.81
322.787
322.361
321.935
321.509
321.083
320.657
320.231
319.805
319.379
318.953
318.528
318.103
317.68
317.26
316.848
322.788
322.364
321.94
321.516
321.091
320.667
320.243
319.818
319.394
318.97
318.546
318.122
317.7
317.281
316.865
322.789
322.367
321.945
321.522
321.1
320.678
320.255
319.832
319.409
318.986
318.563
318.14
317.718
317.299
316.887
322.79
322.37
321.95
321.529
321.109
320.688
320.267
319.846
319.425
319.003
318.58
318.157
317.734
317.313
316.896
322.791
322.373
321.955
321.536
321.118
320.699
320.28
319.861
319.441
319.02
318.598
318.174
317.75
317.324
316.9
322.792
322.376
321.96
321.543
321.127
320.71
320.293
319.875
319.457
319.037
318.616
318.192
317.765
317.335
316.903
322.793
322.379
321.965
321.55
321.136
320.721
320.306
319.891
319.474
319.056
318.636
318.212
317.783
317.346
316.902
322.794
322.382
321.97
321.558
321.145
320.733
320.32
319.907
319.493
319.077
318.659
318.236
317.807
317.362
316.887
322.795
322.385
321.975
321.565
321.155
320.745
320.334
319.924
319.512
319.099
318.684
318.266
317.84
317.4
316.921
289.255
288.761
288.307
287.869
287.438
287.01
286.585
286.162
285.739
285.317
284.896
284.474
284.053
283.632
283.211
289.286
288.796
288.338
287.895
287.46
287.03
286.603
286.177
285.752
285.328
284.904
284.481
284.058
283.635
283.212
289.264
288.807
288.358
287.916
287.48
287.048
286.619
286.191
285.764
285.338
284.913
284.487
284.062
283.637
283.212
289.259
288.815
288.372
287.933
287.497
287.064
286.634
286.204
285.776
285.348
284.921
284.494
284.067
283.64
283.213
289.259
288.821
288.383
287.947
287.512
287.079
286.648
286.217
285.787
285.357
284.928
284.5
284.071
283.643
283.214
289.256
288.827
288.394
287.96
287.526
287.093
286.661
286.229
285.798
285.367
284.936
284.506
284.075
283.645
283.215
289.26
288.836
288.406
287.973
287.54
287.107
286.673
286.241
285.808
285.376
284.943
284.511
284.079
283.648
283.216
289.273
288.848
288.419
287.987
287.554
287.12
286.686
286.252
285.818
285.384
284.951
284.517
284.084
283.65
283.217
289.286
288.863
288.433
288.001
287.568
287.133
286.698
286.263
285.828
285.393
284.958
284.523
284.088
283.653
283.218
289.313
288.882
288.45
288.017
287.582
287.147
286.711
286.275
285.838
285.402
284.965
284.528
284.092
283.655
283.218
289.331
288.901
288.468
288.033
287.597
287.161
286.724
286.286
285.848
285.41
284.972
284.534
284.096
283.657
283.219
289.36
288.922
288.486
288.05
287.613
287.175
286.737
286.298
285.859
285.419
284.979
284.54
284.1
283.66
283.22
289.378
288.943
288.506
288.068
287.629
287.19
286.75
286.31
285.869
285.428
284.987
284.545
284.104
283.662
283.221
289.406
288.964
288.525
288.086
287.646
287.205
286.764
286.322
285.879
285.437
284.994
284.551
284.108
283.665
283.222
289.42
288.983
288.545
288.104
287.663
287.221
286.778
286.334
285.89
285.446
285.002
284.557
284.112
283.667
283.222
289.435
289.004
288.565
288.124
287.681
287.237
286.792
286.347
285.901
285.455
285.009
284.563
284.116
283.67
283.223
289.47
289.029
288.588
288.144
287.699
287.253
286.807
286.36
285.912
285.465
285.017
284.569
284.121
283.672
283.224
289.494
289.056
288.612
288.165
287.718
287.27
286.821
286.373
285.923
285.474
285.024
284.575
284.125
283.675
283.225
289.54
289.086
288.637
288.187
287.737
287.287
286.837
286.386
285.935
285.484
285.032
284.581
284.129
283.678
283.226
289.566
289.114
288.662
288.209
287.757
287.305
286.852
286.399
285.946
285.493
285.04
284.587
284.134
283.68
283.227
289.605
289.143
288.687
288.231
287.777
287.322
286.867
286.413
285.958
285.503
285.048
284.593
284.138
283.683
283.228
289.627
289.169
288.71
288.253
287.796
287.339
286.883
286.426
285.97
285.513
285.056
284.599
284.142
283.685
283.228
289.66
289.194
288.733
288.274
287.815
287.357
286.898
286.44
285.981
285.523
285.064
284.605
284.147
283.688
283.229
289.675
289.216
288.755
288.295
287.835
287.374
286.914
286.453
285.993
285.532
285.072
284.612
284.151
283.691
283.23
289.691
289.237
288.777
288.316
287.854
287.391
286.929
286.467
286.005
285.542
285.08
284.618
284.156
283.693
283.231
289.726
289.263
288.801
288.337
287.873
287.409
286.944
286.48
286.016
285.552
285.088
284.624
284.16
283.696
283.232
289.749
289.289
288.824
288.358
287.892
287.426
286.96
286.494
286.028
285.562
285.096
284.63
284.164
283.699
283.233
289.793
289.319
288.849
288.38
287.911
287.443
286.975
286.507
286.039
285.571
285.104
284.636
284.169
283.701
283.234
289.817
289.345
288.873
288.401
287.93
287.46
286.99
286.52
286.051
285.581
285.112
284.642
284.173
283.704
283.235
289.853
289.372
288.896
288.422
287.949
287.477
287.005
286.533
286.062
285.591
285.119
284.648
284.177
283.706
283.235
289.872
289.395
288.918
288.442
287.967
287.493
287.02
286.546
286.073
285.6
285.127
284.654
284.182
283.709
283.236
289.901
289.417
288.938
288.461
287.985
287.509
287.034
286.559
286.084
285.609
285.135
284.66
284.186
283.712
283.237
289.915
289.436
288.958
288.48
288.002
287.525
287.048
286.572
286.095
285.619
285.142
284.666
284.19
283.714
283.238
289.928
289.455
288.977
288.498
288.02
287.541
287.062
286.584
286.106
285.628
285.15
284.672
284.194
283.717
283.239
289.957
289.477
288.997
288.517
288.036
287.556
287.076
286.596
286.116
285.637
285.157
284.678
284.198
283.719
283.24
289.976
289.499
289.017
288.535
288.053
287.572
287.09
286.608
286.127
285.646
285.165
284.684
284.202
283.721
283.24
290.012
289.523
289.038
288.554
288.07
287.587
287.104
286.62
286.138