/*--------------------------------*- C++ -*----------------------------------*\
| =========                 |                                                 |
| \\      /  F ield         | OpenFOAM: The Open Source CFD Toolbox           |
|  \\    /   O peration     | Version:  5.x                                   |
|   \\  /    A nd           | Web:      www.OpenFOAM.org                      |
|    \\/     M anipulation  |                                                 |
\*---------------------------------------------------------------------------*/
FoamFile
{
    version     2.0;
    format      ascii;
    class       volScalarField;
    location    "2.4";
    object      gradTx;
}
// * * * * * * * * * * * * * * * * * * * * * * * * * * * * * * * * * * * * * //

dimensions      [0 -1 0 1 0 0 0];

internalField   nonuniform List<scalar> 
6300
(
-48.7551
-48.7251
-48.665
-48.5745
-48.4535
-48.3017
-48.119
-47.9054
-47.6612
-47.3871
-47.0842
-46.7538
-46.398
-46.0188
-45.6183
-48.7849
-48.755
-48.6951
-48.6049
-48.4841
-48.3324
-48.1497
-47.9358
-47.691
-47.4158
-47.1113
-46.7792
-46.4213
-46.0401
-45.6378
-48.8444
-48.8147
-48.7552
-48.6655
-48.5453
-48.394
-48.2113
-47.9969
-47.7509
-47.4736
-47.1661
-46.83
-46.4678
-46.0822
-45.6762
-48.9334
-48.9041
-48.8453
-48.7566
-48.6373
-48.4869
-48.3045
-48.0896
-47.8418
-47.5614
-47.2492
-46.9069
-46.5375
-46.1445
-45.7321
-49.0513
-49.0227
-48.9651
-48.8779
-48.7603
-48.6114
-48.4299
-48.2148
-47.9652
-47.6808
-47.362
-47.0109
-46.6306
-46.2261
-45.8034
-49.1978
-49.17
-49.1141
-49.0293
-48.9145
-48.7683
-48.5888
-48.3744
-48.1232
-47.8342
-47.5072
-47.1438
-46.7477
-46.3257
-45.8865
-49.3717
-49.3453
-49.2919
-49.2106
-49.1
-48.9581
-48.7824
-48.5704
-48.3189
-48.0255
-47.6886
-47.309
-46.8907
-46.4423
-45.9769
-49.5719
-49.5472
-49.4973
-49.4209
-49.3165
-49.1813
-49.0123
-48.8055
-48.5563
-48.26
-47.9126
-47.5128
-47.0637
-46.5758
-46.0683
-49.7964
-49.7741
-49.7288
-49.6592
-49.5633
-49.4382
-49.2798
-49.0828
-48.8406
-48.5453
-48.189
-47.7657
-47.2752
-46.7286
-46.1532
-50.0431
-50.0237
-49.9843
-49.9235
-49.8392
-49.7282
-49.5857
-49.4052
-49.1776
-48.8913
-48.5321
-48.0856
-47.5427
-46.9101
-46.2238
-50.3089
-50.2931
-50.2608
-50.211
-50.1416
-50.0493
-49.9294
-49.7743
-49.5732
-49.31
-48.9624
-48.5019
-47.9
-47.145
-46.2763
-50.5903
-50.5785
-50.5547
-50.5179
-50.4665
-50.3979
-50.3078
-50.1893
-50.0307
-49.813
-49.5052
-49.0595
-48.4102
-47.4935
-46.3198
-50.883
-50.8758
-50.8613
-50.839
-50.8083
-50.7676
-50.7145
-50.644
-50.5471
-50.406
-50.186
-49.8204
-49.1875
-48.0989
-46.4024
-51.1826
-51.1802
-51.1753
-51.1684
-51.1596
-51.1495
-51.1382
-51.1251
-51.1076
-51.0776
-51.0121
-50.8485
-50.4202
-49.3118
-46.7157
-51.4844
-51.4865
-51.4911
-51.4991
-51.5121
-51.5324
-51.5634
-51.6102
-51.6804
-51.7846
-51.9362
-52.1411
-52.3327
-52.0118
-48.2664
-45.2345
-44.8714
-44.4957
-44.107
-43.7048
-43.288
-42.8557
-42.4068
-41.9406
-41.4569
-40.956
-40.4388
-39.9072
-39.363
-38.809
-38.2478
-37.6825
-37.1162
-36.5518
-35.9927
-35.4417
-34.9021
-34.3767
-33.8681
-33.3788
-32.9108
-32.466
-32.0456
-31.6507
-31.282
-30.9398
-30.624
-30.3344
-30.0705
-29.8317
-29.617
-29.4258
-29.2571
-29.1101
-28.984
-28.8779
-28.7911
-28.7228
-28.6727
-28.6403
-28.6255
-28.6285
-28.6498
-28.69
-28.7499
-28.8302
-28.9318
-29.0552
-29.2009
-29.369
-29.5595
-29.7721
-30.0062
-30.261
-30.5354
-30.8284
-31.1385
-31.4646
-31.8054
-32.1596
-32.526
-32.9035
-33.2909
-33.6872
-34.0912
-34.5019
-34.9184
-35.3398
-35.7653
-36.1943
-36.626
-37.06
-37.4956
-37.9322
-38.3693
-38.8063
-39.2426
-39.6779
-40.1115
-40.5427
-40.9706
-41.3942
-41.8118
-42.2219
-42.6223
-45.253
-44.8896
-44.5142
-44.1265
-43.7256
-43.3104
-42.8796
-42.4318
-41.9659
-41.4817
-40.9794
-40.4599
-39.9252
-39.3774
-38.8194
-38.254
-37.6843
-37.1134
-36.5446
-35.981
-35.4258
-34.882
-34.3527
-33.8406
-33.3483
-32.8779
-32.4311
-32.0093
-31.6135
-31.2443
-30.9021
-30.5867
-30.2979
-30.035
-29.7972
-29.5838
-29.3938
-29.2263
-29.0806
-28.9556
-28.8506
-28.7648
-28.6973
-28.6476
-28.6153
-28.6003
-28.6027
-28.623
-28.6621
-28.7208
-28.8001
-28.9008
-29.0236
-29.1689
-29.3371
-29.5281
-29.7415
-29.9768
-30.233
-30.5091
-30.8038
-31.1158
-31.4437
-31.7862
-32.1421
-32.5102
-32.8893
-33.2783
-33.6761
-34.0816
-34.4936
-34.9113
-35.3338
-35.7603
-36.1901
-36.6227
-37.0575
-37.4939
-37.9314
-38.3692
-38.8069
-39.244
-39.68
-40.1145
-40.547
-40.9766
-41.4022
-41.8223
-42.2353
-42.6388
-45.2891
-44.9251
-44.5504
-44.1647
-43.767
-43.3554
-42.928
-42.4826
-42.0178
-41.5327
-41.0274
-40.5032
-39.9621
-39.4068
-38.8405
-38.2664
-37.6878
-37.108
-36.5302
-35.9576
-35.3935
-34.8413
-34.3042
-33.7851
-33.2867
-32.8113
-32.3605
-31.9359
-31.5382
-31.1683
-30.8262
-30.5117
-30.2245
-29.9636
-29.7282
-29.5173
-29.3298
-29.1649
-29.0215
-28.899
-28.7963
-28.7125
-28.6467
-28.5981
-28.5661
-28.5504
-28.5515
-28.5698
-28.6065
-28.6627
-28.7396
-28.8384
-28.9598
-29.1046
-29.2729
-29.4647
-29.6798
-29.9175
-30.1767
-30.4562
-30.7546
-31.0704
-31.402
-31.748
-32.1073
-32.4786
-32.8609
-33.2531
-33.654
-34.0624
-34.4773
-34.8974
-35.322
-35.7503
-36.1818
-36.616
-37.0525
-37.4906
-37.9296
-38.369
-38.8081
-39.2464
-39.6838
-40.1201
-40.5549
-40.9878
-41.4175
-41.8428
-42.2616
-42.6714
-45.341
-44.9757
-44.6023
-44.2203
-43.8282
-43.4233
-43.0021
-42.5616
-42.0989
-41.6127
-41.1029
-40.5709
-40.0196
-39.4523
-38.873
-38.2856
-37.6934
-37.0999
-36.5084
-35.9221
-35.3445
-34.7793
-34.23
-33.7002
-33.1925
-32.7094
-32.2528
-31.8239
-31.4236
-31.0525
-30.7108
-30.398
-30.1135
-29.8561
-29.6245
-29.4175
-29.2339
-29.0727
-28.9331
-28.8143
-28.7153
-28.6349
-28.5719
-28.5251
-28.4937
-28.4771
-28.4758
-28.4907
-28.5233
-28.5751
-28.6481
-28.7437
-28.863
-29.0066
-29.1751
-29.3683
-29.586
-29.8274
-30.0914
-30.3765
-30.6808
-31.0025
-31.3397
-31.6911
-32.0553
-32.4313
-32.8184
-33.2153
-33.6211
-34.0342
-34.4533
-34.877
-35.3047
-35.7355
-36.1694
-36.606
-37.045
-37.4857
-37.9273
-38.3689
-38.8099
-39.2499
-39.689
-40.1274
-40.5654
-41.0028
-41.4389
-41.8721
-42.3002
-42.7202
-45.4055
-45.0378
-44.6663
-44.2905
-43.908
-43.5143
-43.1043
-42.6724
-42.214
-41.7268
-41.2102
-40.6667
-40.1
-39.5153
-38.9176
-38.3116
-37.7011
-37.0894
-36.4793
-35.8742
-35.2779
-34.6945
-34.1284
-33.5835
-33.0632
-32.57
-32.1055
-31.6711
-31.2674
-30.895
-30.5541
-30.2441
-29.9639
-29.7118
-29.4859
-29.2845
-29.1062
-28.95
-28.8154
-28.7016
-28.6079
-28.5327
-28.4743
-28.4307
-28.4003
-28.3824
-28.3774
-28.3867
-28.4126
-28.4577
-28.5246
-28.6154
-28.7314
-28.8735
-29.0421
-29.2371
-29.4584
-29.7052
-29.9761
-30.2693
-30.5822
-30.9124
-31.2575
-31.6158
-31.9863
-32.3684
-32.7616
-33.1651
-33.5777
-33.9974
-34.4224
-34.8512
-35.2826
-35.7164
-36.153
-36.5924
-37.0348
-37.4792
-37.9246
-38.3695
-38.8129
-39.2544
-39.6947
-40.1349
-40.5762
-41.0194
-41.464
-41.9084
-42.3498
-42.7846
-45.4773
-45.1054
-44.7365
-44.3704
-44.0035
-43.629
-43.2379
-42.8211
-42.371
-41.8829
-41.3567
-40.7958
-40.2066
-39.597
-38.9742
-38.3443
-37.7109
-37.0765
-36.4433
-35.8141
-35.193
-34.5852
-33.9964
-33.4318
-32.8953
-32.3894
-31.9155
-31.4743
-31.0665
-30.6927
-30.3533
-30.0477
-29.7742
-29.5302
-29.3127
-29.1189
-28.9472
-28.7968
-28.668
-28.5607
-28.4743
-28.4071
-28.356
-28.3177
-28.2895
-28.2698
-28.259
-28.2594
-28.2748
-28.3094
-28.3672
-28.4511
-28.5627
-28.7027
-28.8713
-29.0686
-29.2945
-29.5485
-29.8292
-30.1339
-30.4591
-30.801
-31.1564
-31.5232
-31.9008
-32.2897
-32.6902
-33.1021
-33.5239
-33.953
-34.3863
-34.8214
-35.257
-35.6934
-36.1321
-36.5746
-37.0212
-37.4713
-37.9225
-38.3721
-38.8182
-39.2604
-39.7001
-40.1402
-40.5839
-41.0333
-41.4888
-41.9484
-42.4085
-42.864
-45.5487
-45.1686
-44.8026
-44.4514
-44.11
-43.7674
-43.4086
-43.018
-42.5824
-42.0943
-41.5532
-40.9656
-40.3428
-39.6976
-39.0415
-38.382
-37.7222
-37.0623
-36.4019
-35.7426
-35.0891
-34.4488
-33.8299
-33.2399
-32.6836
-32.1632
-31.6787
-31.2298
-30.817
-30.4414
-30.1043
-29.8056
-29.5426
-29.311
-29.1056
-28.922
-28.7578
-28.6133
-28.49
-28.3901
-28.3138
-28.2586
-28.2197
-28.1909
-28.1669
-28.1447
-28.1248
-28.111
-28.1098
-28.1283
-28.1728
-28.2474
-28.3536
-28.4912
-28.6597
-28.8592
-29.0905
-29.3538
-29.648
-29.9694
-30.3123
-30.6706
-31.0391
-31.4152
-31.7995
-32.1943
-32.6024
-33.0249
-33.4597
-33.9025
-34.3476
-34.7907
-35.23
-35.6671
-36.1059
-36.5504
-37.0027
-37.4615
-37.9222
-38.3794
-38.8289
-39.2696
-39.7046
-40.14
-40.5829
-41.0381
-41.507
-41.9872
-42.4732
-42.9576
-45.6075
-45.2113
-44.8471
-44.5183
-44.2182
-43.9289
-43.6252
-43.2796
-42.8695
-42.3819
-41.8167
-41.1864
-40.5113
-39.8142
-39.1139
-38.4204
-37.734
-37.0489
-36.359
-35.6629
-34.9667
-34.2819
-33.6222
-32.9996
-32.4206
-31.8856
-31.3911
-30.934
-30.5142
-30.1351
-29.8007
-29.5123
-29.2663
-29.0546
-28.8677
-28.6976
-28.5409
-28.3994
-28.2791
-28.1862
-28.1234
-28.0874
-28.0693
-28.0577
-28.0423
-28.017
-27.9823
-27.9452
-27.9169
-27.9102
-27.9356
-27.9987
-28.0997
-28.2356
-28.4039
-28.6046
-28.8406
-29.1151
-29.428
-29.7742
-30.1437
-30.5256
-30.9109
-31.2959
-31.683
-32.0798
-32.4941
-32.9299
-33.3843
-33.8486
-34.312
-34.7655
-35.2063
-35.6383
-36.0711
-36.5148
-36.9748
-37.4485
-37.9268
-38.3977
-38.8518
-39.2867
-39.7081
-40.1288
-40.5635
-41.0225
-41.5086
-42.0173
-42.5395
-43.0645
-45.6357
-45.2078
-44.8406
-44.544
-44.3106
-44.1113
-43.902
-43.6343
-43.2682
-42.7811
-42.1742
-41.4716
-40.7115
-39.9356
-39.1765
-38.4487
-37.7443
-37.0428
-36.325
-35.5838
-34.8282
-34.079
-33.3615
-32.697
-32.0948
-31.5499
-31.05
-30.5847
-30.1533
-29.7647
-29.4311
-29.1585
-28.941
-28.7631
-28.606
-28.4545
-28.3024
-28.1556
-28.0291
-27.9394
-27.895
-27.8908
-27.91
-27.9306
-27.9324
-27.9034
-27.844
-27.767
-27.6934
-27.6464
-27.6446
-27.6958
-27.7958
-27.934
-28.1018
-28.2995
-28.5357
-28.8213
-29.1606
-29.5454
-29.9577
-30.3761
-30.7835
-31.1734
-31.553
-31.9402
-32.355
-32.8082
-33.2946
-33.7962
-34.2904
-34.7588
-35.195
-35.6083
-36.0206
-36.4557
-36.9268
-37.4289
-37.9417
-38.4398
-38.9024
-39.3227
-39.7121
-40.0972
-40.5086
-40.9675
-41.4772
-42.0272
-42.6015
-43.1838
-45.6066
-45.1169
-44.7325
-44.4787
-44.3539
-44.3084
-44.2627
-44.1308
-43.8412
-43.3528
-42.6697
-41.8397
-40.9348
-40.0326
-39.1944
-38.4433
-37.7504
-37.0605
-36.3249
-35.5257
-34.6806
-33.8306
-33.0249
-32.3048
-31.6865
-31.15
-30.6593
-30.1869
-29.731
-29.3157
-28.9741
-28.7257
-28.5591
-28.4421
-28.3368
-28.2125
-28.0568
-27.8831
-27.7267
-27.6276
-27.6091
-27.661
-27.7493
-27.8311
-27.8673
-27.8339
-27.7313
-27.5842
-27.432
-27.3181
-27.2775
-27.3231
-27.4375
-27.5899
-27.757
-27.9392
-28.16
-28.4506
-28.8279
-29.2775
-29.7631
-30.2426
-30.6816
-31.0661
-31.412
-31.7611
-32.1608
-32.6388
-33.1831
-33.7546
-34.3059
-34.7983
-35.2165
-35.5797
-35.9371
-36.3444
-36.8342
-37.3935
-37.9778
-38.5326
-39.0136
-39.4028
-39.7219
-40.0274
-40.3851
-40.8389
-41.3872
-42.0018
-42.6514
-43.3142
-45.481
-44.8744
-44.4362
-44.2278
-44.2832
-44.5061
-44.7474
-44.8546
-44.7006
-44.2047
-43.3769
-42.3156
-41.1545
-40.0377
-39.0869
-38.3544
-37.7524
-37.1442
-36.4164
-35.5338
-34.5405
-33.5185
-32.5652
-31.7665
-31.1607
-30.6844
-30.2427
-29.7657
-29.2504
-28.761
-28.3834
-28.1753
-28.106
-28.1047
-28.0951
-28.0162
-27.8377
-27.586
-27.342
-27.2004
-27.2224
-27.3791
-27.5983
-27.7975
-27.903
-27.8647
-27.6831
-27.4091
-27.1159
-26.8847
-26.7865
-26.8516
-27.0249
-27.2249
-27.391
-27.5236
-27.6841
-27.9552
-28.3914
-28.9576
-29.5777
-30.1675
-30.6582
-31.0145
-31.2667
-31.5092
-31.8539
-32.3738
-33.0323
-33.7422
-34.4061
-34.9447
-35.3172
-35.5595
-35.7817
-36.114
-36.6414
-37.3221
-38.056
-38.7315
-39.2567
-39.5837
-39.7512
-39.8819
-40.1228
-40.5738
-41.2015
-41.9257
-42.6821
-43.452
-45.1971
-44.389
-43.8087
-43.5968
-43.9711
-44.6772
-45.4253
-45.9547
-46.0523
-45.5346
-44.4206
-42.9353
-41.3102
-39.8039
-38.6653
-38.0777
-37.7635
-37.4004
-36.7312
-35.7015
-34.4422
-33.1078
-31.883
-30.9508
-30.4488
-30.1692
-29.8775
-29.3997
-28.7331
-28.0458
-27.5488
-27.4257
-27.5555
-27.7796
-27.9537
-27.964
-27.7245
-27.2781
-26.8107
-26.5379
-26.6423
-27.0075
-27.4769
-27.8993
-28.1462
-28.1023
-27.7685
-27.2624
-26.7108
-26.2602
-26.0609
-26.2246
-26.5743
-26.9092
-27.0735
-27.0681
-27.0492
-27.2226
-27.7681
-28.5605
-29.4361
-30.2353
-30.8288
-31.113
-31.1356
-31.1102
-31.2949
-31.9094
-32.8076
-33.7958
-34.687
-35.3301
-35.6052
-35.5681
-35.4676
-35.6027
-36.2275
-37.1738
-38.2183
-39.1465
-39.7847
-39.994
-39.833
-39.5775
-39.5577
-40.0539
-40.8764
-41.8029
-42.6931
-43.5751
-44.621
-43.5753
-42.6502
-42.1211
-43.1806
-44.7878
-46.4179
-47.6766
-48.2899
-47.7234
-45.999
-43.7564
-41.2952
-39.0409
-37.4501
-37.4079
-37.845
-38.0974
-37.5656
-36.2001
-34.4522
-32.5398
-30.7798
-29.5159
-29.4168
-29.6721
-29.7805
-29.3063
-28.2462
-27.057
-26.1763
-26.3123
-26.8699
-27.5272
-28.049
-28.2719
-27.9099
-27.0014
-25.9997
-25.3331
-25.6872
-26.4867
-27.4237
-28.2546
-28.8091
-28.758
-28.103
-27.1818
-26.1614
-25.2746
-24.813
-25.3305
-26.1458
-26.8394
-27.0012
-26.6327
-26.1378
-25.9549
-26.7898
-28.0442
-29.4049
-30.5996
-31.4452
-31.5886
-31.074
-30.409
-30.1171
-31.0368
-32.4533
-33.9893
-35.3252
-36.2455
-36.3427
-35.6678
-34.8143
-34.3858
-35.3507
-36.8837
-38.5476
-39.9789
-40.93
-40.937
-40.0504
-38.933
-38.2488
-39.0639
-40.4006
-41.7321
-42.7152
-43.5647
-43.2373
-42.5879
-40.9219
-38.3582
-41.6018
-44.8656
-47.9452
-50.3281
-52.2264
-51.5797
-48.3238
-44.8923
-40.9822
-37.3226
-34.005
-36.0479
-38.1928
-39.9241
-39.6008
-37.2495
-34.6994
-31.7524
-28.9624
-26.4042
-27.8749
-29.387
-30.523
-30.0567
-27.9456
-25.624
-23.3402
-24.5924
-26.041
-27.4703
-28.5754
-29.4225
-28.8826
-26.8595
-24.7066
-22.6588
-24.0913
-25.7684
-27.5237
-29.0086
-30.3447
-30.284
-28.8211
-27.2445
-25.4199
-23.677
-22.1558
-24.0079
-25.8932
-27.5358
-27.6929
-26.3797
-24.7776
-23.2218
-25.2074
-27.3754
-29.6129
-31.4668
-33.0729
-33.0118
-31.2291
-29.1708
-27.1946
-29.4487
-31.9268
-34.4712
-36.5618
-38.3461
-38.1918
-36.0248
-33.5489
-31.1622
-33.6556
-36.4051
-39.2116
-41.5022
-43.4346
-43.1664
-40.5999
-37.6644
-34.7806
-37.3223
-39.9319
-42.1622
-42.9292
-42.8085
-38.1878
-43.065
-40.4854
-26.2326
-39.9935
-45.2086
-50.4759
-53.6773
-59.8278
-59.1934
-50.9013
-46.7176
-40.3088
-35.1118
-22.8411
-34.5414
-39.1364
-44.7094
-44.5568
-38.5852
-35.5186
-30.7393
-26.8117
-17.491
-26.2736
-29.6439
-33.5731
-33.176
-27.9488
-24.1372
-15.4128
-22.59
-25.2406
-27.8807
-29.4738
-32.5711
-31.992
-26.9049
-23.2629
-14.9735
-22.1439
-24.9382
-28.0136
-29.9779
-33.8924
-33.8301
-29.7037
-27.665
-24.5613
-21.7611
-14.6413
-22.6382
-25.9904
-30.3721
-30.5023
-26.5431
-23.3512
-15.3894
-23.3628
-26.6067
-30.3736
-32.6915
-37.1019
-36.9144
-31.7812
-27.8147
-18.1808
-27.5384
-31.3049
-35.6065
-38.2397
-43.2383
-42.9393
-36.8265
-32.1549
-20.911
-31.5915
-35.8439
-40.6185
-43.5406
-49.1077
-48.7051
-41.6802
-36.3207
-23.4995
-35.4821
-40.009
-44.6987
-44.4204
-38.0617
-43.0483
-43.4942
-43.9161
-44.3106
-44.6752
-45.0077
-45.3067
-45.5717
-45.8022
-45.9986
-46.161
-46.2901
-46.3864
-46.4503
-46.4822
-43.0683
-43.5178
-43.9429
-44.3401
-44.7067
-45.0405
-45.3403
-45.6055
-45.8359
-46.0318
-46.1938
-46.3224
-46.4182
-46.4817
-46.5134
-43.1081
-43.5652
-43.997
-44.3996
-44.7702
-45.1067
-45.4079
-45.6734
-45.9034
-46.0985
-46.2593
-46.3868
-46.4816
-46.5444
-46.5757
-43.1683
-43.6373
-44.0795
-44.4906
-44.8673
-45.2076
-45.5105
-45.7762
-46.0053
-46.1987
-46.3576
-46.4831
-46.5763
-46.638
-46.6687
-43.2494
-43.7356
-44.1927
-44.6154
-45.0002
-45.3451
-45.6498
-45.9151
-46.1422
-46.3328
-46.4886
-46.6113
-46.702
-46.7619
-46.7917
-43.3522
-43.8623
-44.3397
-44.7776
-45.1722
-45.5222
-45.828
-46.0914
-46.3149
-46.501
-46.6522
-46.7706
-46.8579
-46.9153
-46.9438
-43.4783
-44.0213
-44.5255
-44.9825
-45.3884
-45.7427
-46.0478
-46.307
-46.5244
-46.7036
-46.848
-46.9604
-47.0429
-47.097
-47.1238
-43.6306
-44.2185
-44.7579
-45.238
-45.6554
-46.012
-46.3128
-46.5639
-46.7713
-46.9402
-47.0752
-47.1794
-47.2556
-47.3054
-47.33
-43.8137
-44.4638
-45.049
-45.5558
-45.9828
-46.3365
-46.6268
-46.8638
-47.0559
-47.2103
-47.3323
-47.4259
-47.4939
-47.5383
-47.5602
-44.0357
-44.7734
-45.4181
-45.9531
-46.3832
-46.7242
-46.9939
-47.2077
-47.3775
-47.5119
-47.617
-47.6972
-47.7552
-47.793
-47.8116
-44.3088
-45.1759
-45.8964
-46.4546
-46.8725
-47.1831
-47.4167
-47.5953
-47.7339
-47.8421
-47.9261
-47.9899
-48.0361
-48.0661
-48.0809
-44.6501
-45.7242
-46.5364
-47.0951
-47.4681
-47.7191
-47.8945
-48.0228
-48.1202
-48.1957
-48.2545
-48.2995
-48.3323
-48.3537
-48.3644
-45.0845
-46.5331
-47.429
-47.9198
-48.1834
-48.3299
-48.4193
-48.4809
-48.5277
-48.5654
-48.5961
-48.6206
-48.6391
-48.6515
-48.6577
-45.7109
-47.8942
-48.7278
-48.9721
-49.0137
-48.9969
-48.9719
-48.9536
-48.9441
-48.9414
-48.9431
-48.9469
-48.9512
-48.9546
-48.9565
-47.3337
-50.6031
-50.6151
-50.2274
-49.9003
-49.671
-49.5177
-49.4175
-49.3531
-49.3124
-49.2872
-49.272
-49.2633
-49.2585
-49.2565
-51.7588
-51.7647
-51.7771
-51.7975
-51.8282
-51.8732
-51.9384
-52.0333
-52.1741
-52.3891
-52.7343
-53.3375
-54.555
-57.6257
-67.8161
-52.0039
-52.0128
-52.0313
-52.0612
-52.1055
-52.1687
-52.2584
-52.3861
-52.5714
-52.8481
-53.2802
-53.9981
-55.2879
-57.7852
-62.6041
-52.2427
-52.2539
-52.2773
-52.3147
-52.3693
-52.4458
-52.5518
-52.6989
-52.9051
-53.1991
-53.6273
-54.2609
-55.1821
-56.3324
-56.6935
-52.4733
-52.4864
-52.5134
-52.5561
-52.6175
-52.7022
-52.8166
-52.9706
-53.1776
-53.4567
-53.8315
-54.3234
-54.9171
-55.4275
-55.0852
-52.6945
-52.7088
-52.7382
-52.7842
-52.8494
-52.9376
-53.054
-53.2053
-53.4001
-53.6474
-53.9536
-54.3152
-54.7096
-55.1146
-55.8296
-52.9055
-52.9205
-52.9511
-52.9986
-53.0651
-53.1533
-53.2668
-53.4099
-53.5861
-53.7968
-54.0364
-54.2841
-54.4946
-54.5861
-54.4871
-53.1058
-53.121
-53.1519
-53.1995
-53.2653
-53.3511
-53.4592
-53.5914
-53.7481
-53.9258
-54.1125
-54.279
-54.3622
-54.1893
-53.0797
-53.2953
-53.3104
-53.3409
-53.3875
-53.4513
-53.5334
-53.6347
-53.7559
-53.8955
-54.0482
-54.2015
-54.3317
-54.4077
-54.4424
-54.9814
-53.4739
-53.4886
-53.5182
-53.5633
-53.6243
-53.7019
-53.7965
-53.9077
-54.0338
-54.1698
-54.3055
-54.4219
-54.4817
-54.3449
-53.1857
-53.642
-53.6561
-53.6846
-53.7276
-53.7854
-53.8584
-53.9465
-54.0493
-54.1652
-54.2912
-54.4217
-54.5514
-54.6923
-54.9569
-56.1635
-53.7999
-53.8134
-53.8404
-53.8812
-53.9357
-54.0041
-54.0863
-54.1818
-54.2898
-54.409
-54.5372
-54.6731
-54.8168
-54.9143
-54.4091
-53.9481
-53.9608
-53.9864
-54.0248
-54.0761
-54.14
-54.2166
-54.3057
-54.4068
-54.5201
-54.6459
-54.7893
-54.9733
-55.2896
-56.2917
-54.087
-54.099
-54.1231
-54.1592
-54.2072
-54.2669
-54.3383
-54.4212
-54.5156
-54.6219
-54.7412
-54.8773
-55.0379
-55.188
-54.8916
-54.2172
-54.2285
-54.2511
-54.2849
-54.3297
-54.3854
-54.4518
-54.5287
-54.6161
-54.7142
-54.8235
-54.9481
-55.1099
-55.3958
-56.2683
-54.3391
-54.3497
-54.3709
-54.4025
-54.4444
-54.4962
-54.5579
-54.6291
-54.7094
-54.7983
-54.8938
-54.9931
-55.0955
-55.1955
-55.2778
-54.4533
-54.4632
-54.483
-54.5126
-54.5517
-54.6
-54.6572
-54.7231
-54.7969
-54.8773
-54.96
-55.0359
-55.0828
-55.0068
-54.3495
-54.5601
-54.5694
-54.588
-54.6156
-54.6521
-54.6972
-54.7505
-54.8117
-54.88
-54.954
-55.0294
-55.0987
-55.1555
-55.2211
-55.649
-54.66
-54.6688
-54.6862
-54.7121
-54.7462
-54.7884
-54.8382
-54.8954
-54.9594
-55.0292
-55.1015
-55.1702
-55.2222
-55.1831
-54.5716
-54.7535
-54.7617
-54.7781
-54.8024
-54.8344
-54.8739
-54.9206
-54.9744
-55.035
-55.102
-55.1746
-55.2532
-55.352
-55.5419
-56.2879
-54.8408
-54.8485
-54.8639
-54.8868
-54.9169
-54.9541
-54.998
-55.0487
-55.1061
-55.1705
-55.2419
-55.322
-55.4186
-55.5136
-55.3148
-54.9223
-54.9296
-54.9442
-54.9657
-54.9942
-55.0292
-55.0707
-55.1184
-55.1727
-55.2336
-55.3014
-55.3794
-55.4864
-55.6885
-56.3146
-54.9983
-55.0052
-55.019
-55.0395
-55.0664
-55.0995
-55.1387
-55.1838
-55.2347
-55.2913
-55.3522
-55.4165
-55.488
-55.5684
-55.6494
-55.069
-55.0756
-55.0887
-55.1082
-55.1338
-55.1653
-55.2025
-55.2452
-55.2931
-55.3453
-55.399
-55.4486
-55.4834
-55.4469
-55.0463
-55.1346
-55.1409
-55.1535
-55.1722
-55.1967
-55.2269
-55.2624
-55.3031
-55.3486
-55.3976
-55.4469
-55.4909
-55.5283
-55.5775
-55.8709
-55.1954
-55.2015
-55.2136
-55.2315
-55.2552
-55.2843
-55.3186
-55.3579
-55.4018
-55.4491
-55.4965
-55.5378
-55.5651
-55.5376
-55.2052
-55.2514
-55.2573
-55.2691
-55.2865
-55.3094
-55.3377
-55.3711
-55.4096
-55.4528
-55.5
-55.5485
-55.5945
-55.6399
-55.7086
-56.0321
-55.3029
-55.3086
-55.3201
-55.3371
-55.3595
-55.3871
-55.42
-55.458
-55.5012
-55.5493
-55.6004
-55.6514
-55.6987
-55.7018
-55.3724
-55.3498
-55.3555
-55.3667
-55.3833
-55.4054
-55.4326
-55.4651
-55.503
-55.5465
-55.5959
-55.6505
-55.7108
-55.788
-55.925
-56.3929
-55.3924
-55.3979
-55.409
-55.4254
-55.4471
-55.4741
-55.5063
-55.5441
-55.5879
-55.6381
-55.6948
-55.7585
-55.8358
-55.9175
-55.8422
-55.4305
-55.436
-55.4469
-55.4632
-55.4847
-55.5115
-55.5435
-55.5812
-55.6249
-55.6753
-55.7322
-55.7966
-55.8806
-56.018
-56.3773
-55.4644
-55.4698
-55.4807
-55.4968
-55.5182
-55.5448
-55.5767
-55.6142
-55.6576
-55.7073
-55.7622
-55.8212
-55.8882
-55.9634
-56.0369
-55.4939
-55.4993
-55.5101
-55.5262
-55.5475
-55.5741
-55.6059
-55.6431
-55.6862
-55.7349
-55.7875
-55.8403
-55.8901
-55.9091
-55.7544
-55.5191
-55.5246
-55.5353
-55.5514
-55.5728
-55.5993
-55.631
-55.6682
-55.711
-55.7591
-55.8104
-55.8614
-55.9135
-55.9743
-56.1435
-55.54
-55.5455
-55.5563
-55.5724
-55.5938
-55.6204
-55.6522
-55.6895
-55.7323
-55.7804
-55.8314
-55.8819
-55.9308
-55.9633
-55.8846
-55.5566
-55.5621
-55.573
-55.5892
-55.6107
-55.6375
-55.6695
-55.7071
-55.7503
-55.7988
-55.8508
-55.9033
-55.9595
-56.0286
-56.1886
-55.5689
-55.5744
-55.5854
-55.6017
-55.6234
-55.6504
-55.6828
-55.7208
-55.7647
-55.8142
-55.8676
-55.9221
-55.9794
-56.0297
-56.0001
-55.5767
-55.5823
-55.5934
-55.6099
-55.6319
-55.6592
-55.6921
-55.7307
-55.7754
-55.8261
-55.8813
-55.9391
-56.004
-56.0853
-56.2396
-55.5802
-55.5858
-55.597
-55.6138
-55.636
-55.6638
-55.6972
-55.7365
-55.7821
-55.8342
-55.8912
-55.951
-56.0172
-56.089
-56.1521
-55.5791
-55.5848
-55.5962
-55.6132
-55.6358
-55.664
-55.6979
-55.738
-55.7847
-55.838
-55.8967
-55.9586
-56.0264
-56.0979
-56.1636
-55.5735
-55.5793
-55.5909
-55.6081
-55.6311
-55.6597
-55.6943
-55.7351
-55.7828
-55.8374
-55.8979
-55.962
-56.0331
-56.1097
-56.1801
-55.5633
-55.5692
-55.5809
-55.5985
-55.6218
-55.6509
-55.6861
-55.7277
-55.7762
-55.8321
-55.8941
-55.9606
-56.0361
-56.1248
-56.2529
-55.5484
-55.5544
-55.5663
-55.5842
-55.6079
-55.6375
-55.6733
-55.7155
-55.7649
-55.8217
-55.8848
-55.9529
-56.0298
-56.1113
-56.1466
-55.5288
-55.5349
-55.547
-55.5651
-55.5892
-55.6194
-55.6557
-55.6986
-55.7486
-55.806
-55.8698
-55.939
-56.0205
-56.129
-56.3479
-55.5043
-55.5105
-55.5229
-55.5413
-55.5658
-55.5965
-55.6334
-55.6769
-55.7275
-55.7852
-55.8488
-55.9164
-55.9923
-56.0688
-56.0474
-55.475
-55.4813
-55.4938
-55.5126
-55.5376
-55.5688
-55.6063
-55.6505
-55.7016
-55.7596
-55.8225
-55.8882
-55.9638
-56.0756
-56.401
-55.4407
-55.4471
-55.4598
-55.479
-55.5044
-55.5362
-55.5744
-55.6194
-55.6713
-55.7296
-55.7919
-55.8531
-55.9101
-55.9328
-55.7276
-55.4012
-55.4078
-55.4208
-55.4403
-55.4662
-55.4986
-55.5377
-55.5836
-55.6367
-55.6963
-55.7595
-55.821
-55.8803
-55.9471
-56.1803
-55.3567
-55.3633
-55.3766
-55.3964
-55.4229
-55.456
-55.4959
-55.5431
-55.5977
-55.6596
-55.7258
-55.7904
-55.8453
-55.8448
-55.568
-55.3069
-55.3137
-55.3272
-55.3474
-55.3743
-55.4081
-55.449
-55.4975
-55.5541
-55.6191
-55.6908
-55.7666
-55.8487
-55.9333
-56.0061
-55.2518
-55.2586
-55.2724
-55.2929
-55.3204
-55.3548
-55.3966
-55.4464
-55.5049
-55.573
-55.6506
-55.7384
-55.8503
-56.0288
-56.5027
-55.1913
-55.1982
-55.2122
-55.2331
-55.2609
-55.296
-55.3386
-55.3893
-55.4493
-55.5196
-55.6006
-55.6936
-55.8057
-55.918
-55.7979
-55.1253
-55.1323
-55.1465
-55.1676
-55.1959
-55.2314
-55.2746
-55.326
-55.3867
-55.4578
-55.54
-55.6354
-55.761
-55.9675
-56.5562
-55.0537
-55.0609
-55.0752
-55.0966
-55.1252
-55.1611
-55.2047
-55.2565
-55.3172
-55.3877
-55.4674
-55.5564
-55.66
-55.7504
-55.5129
-54.9765
-54.9838
-54.9982
-55.0199
-55.0487
-55.085
-55.1289
-55.1808
-55.2413
-55.3102
-55.386
-55.4673
-55.5682
-55.7599
-56.5312
-54.8937
-54.901
-54.9156
-54.9374
-54.9665
-55.0031
-55.0473
-55.0995
-55.1597
-55.2272
-55.2981
-55.3645
-55.4132
-55.3659
-54.718
-54.8052
-54.8125
-54.8272
-54.8492
-54.8785
-54.9154
-54.96
-55.0126
-55.0733
-55.1409
-55.2107
-55.2739
-55.3251
-55.3876
-55.8384
-54.7109
-54.7183
-54.733
-54.7551
-54.7847
-54.8219
-54.867
-54.9204
-54.9824
-55.0522
-55.1255
-55.1917
-55.2292
-55.1384
-54.4318
-54.6109
-54.6183
-54.633
-54.6552
-54.6849
-54.7223
-54.7679
-54.8223
-54.8863
-54.9603
-55.0424
-55.1294
-55.2225
-55.3155
-55.3912
-54.5051
-54.5124
-54.5272
-54.5493
-54.579
-54.6166
-54.6626
-54.7178
-54.7837
-54.8618
-54.9534
-55.0629
-55.2158
-55.5035
-56.4113
-54.3935
-54.4008
-54.4154
-54.4375
-54.4671
-54.5046
-54.5505
-54.606
-54.6728
-54.7531
-54.8494
-54.9664
-55.1155
-55.2597
-54.9376
-54.2761
-54.2834
-54.2979
-54.3197
-54.349
-54.3861
-54.4316
-54.4866
-54.5528
-54.6324
-54.7283
-54.8475
-55.0186
-55.3384
-56.3812
-54.1531
-54.1602
-54.1745
-54.196
-54.2249
-54.2613
-54.306
-54.3597
-54.4237
-54.4996
-54.5885
-54.6925
-54.8185
-54.9137
-54.3935
-54.0244
-54.0314
-54.0454
-54.0665
-54.0948
-54.1304
-54.1738
-54.2257
-54.2866
-54.357
-54.4354
-54.5222
-54.64
-54.9151
-56.2169
-53.8902
-53.897
-53.9107
-53.9313
-53.9588
-53.9935
-54.0356
-54.0855
-54.1433
-54.2078
-54.2739
-54.3303
-54.3522
-54.2024
-52.9993
-53.7506
-53.7572
-53.7706
-53.7906
-53.8173
-53.851
-53.8918
-53.9401
-53.9956
-54.0566
-54.1165
-54.1624
-54.1836
-54.2198
-54.9082
-53.6057
-53.6121
-53.625
-53.6444
-53.6703
-53.703
-53.7427
-53.7898
-53.8444
-53.9053
-53.9662
-54.0117
-54.0047
-53.7832
-52.5506
-53.4556
-53.4618
-53.4743
-53.4929
-53.518
-53.5496
-53.5881
-53.6344
-53.6892
-53.753
-53.8238
-53.8976
-53.9747
-54.0473
-54.0987
-53.3005
-53.3065
-53.3184
-53.3364
-53.3604
-53.3908
-53.4281
-53.4733
-53.5282
-53.595
-53.6765
-53.7811
-53.9479
-54.325
-55.6909
-53.1406
-53.1463
-53.1578
-53.1749
-53.1977
-53.2267
-53.2622
-53.3057
-53.3591
-53.4258
-53.5104
-53.6215
-53.7751
-53.9147
-53.3289
-52.9761
-52.9815
-52.9924
-53.0086
-53.0302
-53.0574
-53.0907
-53.1313
-53.1811
-53.2434
-53.3233
-53.4324
-53.6121
-54.007
-55.48
-52.8071
-52.8123
-52.8226
-52.8379
-52.8582
-52.8835
-52.914
-52.9506
-52.9946
-53.048
-53.1131
-53.1943
-53.2996
-53.3493
-52.4828
-52.6338
-52.6387
-52.6485
-52.663
-52.682
-52.7053
-52.7329
-52.765
-52.8019
-52.8436
-52.8889
-52.9393
-53.0258
-53.3266
-55.0722
-52.4564
-52.4612
-52.4705
-52.4843
-52.5021
-52.5236
-52.5485
-52.5763
-52.6062
-52.6358
-52.6585
-52.6594
-52.6033
-52.2992
-50.5188
-52.2751
-52.2797
-52.2888
-52.302
-52.319
-52.3391
-52.3619
-52.3863
-52.4109
-52.4319
-52.4404
-52.4191
-52.3529
-52.2957
-53.1012
-52.0898
-52.0944
-52.1034
-52.1164
-52.133
-52.1524
-52.1739
-52.1964
-52.2183
-52.2359
-52.2401
-52.2101
-52.0964
-51.6919
-49.9711
-51.9008
-51.9054
-51.9145
-51.9277
-51.9443
-51.9636
-51.9849
-52.0071
-52.029
-52.0485
-52.0608
-52.0592
-52.0417
-52.0009
-51.935
-51.7078
-51.7126
-51.7221
-51.7358
-51.753
-51.7731
-51.7951
-51.8182
-51.8416
-51.865
-51.8885
-51.9195
-52.0033
-52.326
-53.8617
-51.5108
-51.516
-51.5261
-51.5407
-51.5591
-51.5807
-51.6044
-51.6292
-51.6547
-51.6806
-51.7082
-51.743
-51.799
-51.8075
-50.931
-51.3096
-51.3152
-51.3262
-51.3421
-51.3625
-51.3863
-51.4126
-51.4401
-51.4676
-51.4943
-51.5202
-51.5519
-51.6278
-51.9021
-53.3326
-51.1038
-51.11
-51.1221
-51.1399
-51.1627
-51.1898
-51.2198
-51.2511
-51.2814
-51.3077
-51.3253
-51.3301
-51.3189
-51.1927
-50.028
-50.8931
-50.8999
-50.9134
-50.9334
-50.9594
-50.9906
-51.0259
-51.063
-51.0984
-51.1262
-51.1366
-51.1193
-51.0899
-51.203
-52.631
-50.677
-50.6845
-50.6996
-50.722
-50.7517
-50.7882
-50.8305
-50.8762
-50.9209
-50.9559
-50.9644
-50.9172
-50.7618
-50.2991
-48.3848
-50.4551
-50.4633
-50.4798
-50.5049
-50.5387
-50.5814
-50.6325
-50.6902
-50.7504
-50.8032
-50.8282
-50.7902
-50.6471
-50.402
-50.6668
-50.2268
-50.2356
-50.2535
-50.281
-50.319
-50.3683
-50.4296
-50.5028
-50.5854
-50.669
-50.733
-50.7361
-50.6035
-50.1494
-48.6872
-49.9918
-50.001
-50.0198
-50.0492
-50.0907
-50.1462
-50.2183
-50.3091
-50.42
-50.5475
-50.6776
-50.7762
-50.7831
-50.5958
-50.1541
-49.7498
-49.759
-49.778
-49.8083
-49.852
-49.9123
-49.9937
-50.1018
-50.2432
-50.4234
-50.6412
-50.88
-51.0977
-51.2175
-51.3224
-49.5007
-49.5095
-49.5278
-49.5574
-49.6012
-49.6633
-49.7504
-49.8715
-50.0397
-50.2722
-50.5878
-50.9985
-51.4803
-51.8483
-51.5351
-49.245
-49.2527
-49.2691
-49.2961
-49.3369
-49.3966
-49.4831
-49.6086
-49.7919
-50.0626
-50.4655
-51.0677
-51.9421
-52.9511
-52.5748
-48.9832
-48.9893
-49.0025
-49.0246
-49.0589
-49.1108
-49.1887
-49.3057
-49.4838
-49.7601
-50.2023
-50.9479
-52.3104
-55.0148
-60.6688
-48.7166
-48.7204
-48.7289
-48.7438
-48.7681
-48.8066
-48.8668
-48.9606
-49.1076
-49.3417
-49.7257
-50.3998
-51.747
-55.0289
-65.3891
-66.5822
-56.0711
-52.7116
-51.3224
-50.6212
-50.2181
-49.9692
-49.8099
-49.7061
-49.6378
-49.5928
-49.5635
-49.5449
-49.5339
-49.5289
-62.1833
-56.0744
-53.2495
-51.8399
-51.0675
-50.6075
-50.3175
-50.1283
-50.0021
-49.9169
-49.8592
-49.8203
-49.7949
-49.7796
-49.7724
-53.1204
-53.7959
-52.8051
-51.9146
-51.2949
-50.878
-50.5958
-50.4029
-50.2695
-50.1767
-50.1119
-50.0672
-50.0374
-50.0191
-50.0104
-52.5094
-52.6732
-52.2915
-51.8012
-51.3795
-51.0538
-50.8123
-50.6363
-50.5087
-50.4164
-50.3501
-50.3031
-50.2712
-50.2513
-50.2418
-51.792
-51.9282
-51.8537
-51.64
-51.3951
-51.1703
-50.9835
-50.8362
-50.7231
-50.6377
-50.5742
-50.5281
-50.496
-50.4758
-50.466
-50.8655
-51.3283
-51.5131
-51.5001
-51.3948
-51.2594
-51.1273
-51.0125
-50.9182
-50.8434
-50.7857
-50.7426
-50.712
-50.6924
-50.6828
-49.7471
-50.9203
-51.3101
-51.424
-51.4131
-51.3453
-51.2592
-51.1746
-51.0996
-51.0369
-50.9865
-50.9477
-50.9196
-50.9014
-50.8924
-51.1622
-51.0552
-51.2992
-51.4344
-51.4687
-51.443
-51.3902
-51.3301
-51.2724
-51.2213
-51.1787
-51.1449
-51.1198
-51.1033
-51.0951
-49.3189
-50.945
-51.3642
-51.5148
-51.5636
-51.5585
-51.5265
-51.4842
-51.4403