/*--------------------------------*- C++ -*----------------------------------*\
| =========                 |                                                 |
| \\      /  F ield         | OpenFOAM: The Open Source CFD Toolbox           |
|  \\    /   O peration     | Version:  5.x                                   |
|   \\  /    A nd           | Web:      www.OpenFOAM.org                      |
|    \\/     M anipulation  |                                                 |
\*---------------------------------------------------------------------------*/
FoamFile
{
    version     2.0;
    format      ascii;
    class       volScalarField;
    location    "2.4";
    object      gradTy;
}
// * * * * * * * * * * * * * * * * * * * * * * * * * * * * * * * * * * * * * //

dimensions      [0 -1 0 1 0 0 0];

internalField   nonuniform List<scalar> 
6300
(
32275.6
32226.8
32178.1
32129.5
32081
32032.6
31984.3
31936.3
31888.5
31840.9
31793.7
31746.7
31700.1
31653.9
31608.1
-0.0222973
-0.0669807
-0.111916
-0.15722
-0.202936
-0.249008
-0.295252
-0.341338
-0.386783
-0.430978
-0.473235
-0.512889
-0.549423
-0.582633
-0.612759
-0.0370668
-0.111358
-0.186112
-0.261562
-0.337815
-0.414803
-0.492239
-0.569575
-0.645987
-0.720395
-0.791552
-0.858197
-0.919306
-0.974381
-1.02374
-0.0516685
-0.155266
-0.259614
-0.365105
-0.471959
-0.58015
-0.689325
-0.798736
-0.907191
-1.01306
-1.11437
-1.20903
-1.29521
-1.37183
-1.43911
-0.0660044
-0.198409
-0.331953
-0.46726
-0.604737
-0.744477
-0.886133
-1.0288
-1.17092
-1.31022
-1.44377
-1.56828
-1.6806
-1.77852
-1.86179
-0.0799504
-0.240416
-0.402529
-0.567237
-0.735242
-0.90687
-1.0819
-1.25939
-1.43745
-1.61309
-1.78217
-1.93968
-2.08032
-2.19982
-2.29656
-0.0933293
-0.280765
-0.470493
-0.663892
-0.862093
-1.06582
-1.27518
-1.48936
-1.70634
-1.92243
-2.13209
-2.32786
-2.50113
-2.64379
-2.75118
-0.105925
-0.318809
-0.534762
-0.755713
-0.983376
-1.21909
-1.46356
-1.71648
-1.97603
-2.23814
-2.4958
-2.73847
-2.95246
-3.12295
-3.23873
-0.117481
-0.353767
-0.594009
-0.840788
-1.09657
-1.36355
-1.64341
-1.9369
-2.24308
-2.55824
-2.87441
-3.1777
-3.44726
-3.65679
-3.78156
-0.12771
-0.384755
-0.646691
-0.916827
-1.19851
-1.49506
-1.80958
-2.14457
-2.50107
-2.87724
-3.26584
-3.65062
-4.00204
-4.27539
-4.41845
-0.136308
-0.410835
-0.691146
-0.981279
-1.28553
-1.60853
-1.95522
-2.33064
-2.73932
-3.18373
-3.66105
-4.15687
-4.63486
-5.02427
-5.21833
-0.14299
-0.431111
-0.725747
-1.03157
-1.35375
-1.69825
-2.07204
-2.48337
-2.94176
-3.45727
-4.03772
-4.6809
-5.35624
-5.96843
-6.31016
-0.147526
-0.444852
-0.74913
-1.06544
-1.3996
-1.75861
-2.15124
-2.58896
-3.08702
-3.66583
-4.3516
-5.17273
-6.14068
-7.18281
-7.95894
-0.14978
-0.451621
-0.760445
-1.08141
-1.42053
-1.78525
-2.18529
-2.63413
-3.15145
-3.7674
-4.53009
-5.51764
-6.85073
-8.66282
-10.7636
-0.149747
-0.451382
-0.759576
-1.07917
-1.4158
-1.77648
-2.17044
-2.61076
-3.11721
-3.72218
-4.48364
-5.51684
-7.08138
-9.85367
-15.9056
31566.4
31528.9
31491.6
31454.7
31418.1
31381.9
31346
31310.4
31275.3
31240.5
31206.1
31172.2
31138.7
31105.7
31073.1
31041
31009.4
30978.2
30947.5
30917.3
30887.5
30858.2
30829.4
30800.9
30772.9
30745.3
30718.1
30691.3
30664.7
30638.5
30612.6
30587
30561.6
30536.5
30511.5
30486.8
30462.2
30437.8
30413.5
30389.3
30365.2
30341.2
30317.2
30293.3
30269.4
30245.6
30221.8
30197.9
30174
30150.1
30126.1
30102.1
30077.9
30053.7
30029.3
30004.8
29980.1
29955.2
29930.1
29904.8
29879.2
29853.4
29827.3
29801
29774.3
29747.4
29720.1
29692.6
29664.7
29636.4
29607.9
29578.9
29549.7
29520
29490.1
29459.7
29429
29398
29366.5
29334.7
29302.6
29270.1
29237.2
29203.9
29170.3
29136.4
29102
29067.4
29032.3
28997
-0.638248
-0.660584
-0.682935
-0.706175
-0.73105
-0.758034
-0.787216
-0.818252
-0.850387
-0.882559
-0.91354
-0.942106
-0.967175
-0.987901
-1.00369
-1.01419
-1.0192
-1.01862
-1.01241
-1.00057
-0.98317
-0.96038
-0.932507
-0.899989
-0.863377
-0.823302
-0.780429
-0.735431
-0.688968
-0.641678
-0.594162
-0.54697
-0.500568
-0.455316
-0.411455
-0.369116
-0.328343
-0.289134
-0.25147
-0.215324
-0.180646
-0.147335
-0.115191
-0.0838992
-0.0530293
-0.0220739
0.00948728
0.0421127
0.0761316
0.111701
0.148796
0.187224
0.226668
0.266724
0.30694
0.346838
0.385933
0.423762
0.459907
0.494034
0.52592
0.555463
0.582674
0.607632
0.630443
0.651196
0.669939
0.686694
0.701483
0.714362
0.725448
0.734916
0.742967
0.749786
0.755505
0.760186
0.763836
0.76644
0.768007
0.768587
0.768263
0.767108
0.765117
0.762152
0.757908
0.751925
0.743634
0.732445
0.717823
0.699362
-1.06495
-1.10081
-1.13666
-1.1742
-1.2149
-1.25973
-1.30891
-1.36184
-1.41709
-1.47266
-1.52625
-1.57559
-1.61873
-1.65422
-1.68113
-1.69895
-1.70747
-1.70658
-1.69624
-1.6764
-1.64712
-1.60867
-1.56152
-1.50646
-1.44445
-1.3766
-1.30409
-1.22805
-1.14961
-1.06984
-0.989793
-0.910411
-0.832516
-0.756728
-0.683436
-0.612814
-0.54488
-0.479584
-0.416874
-0.35673
-0.299123
-0.243942
-0.190895
-0.139449
-0.0888269
-0.0380828
0.0137696
0.0676009
0.124029
0.183333
0.24544
0.309975
0.376339
0.443807
0.51158
0.57883
0.644716
0.708415
0.769177
0.826399
0.879692
0.928909
0.974124
1.01555
1.05342
1.08792
1.11912
1.147
1.17155
1.19283
1.21103
1.22649
1.23961
1.25077
1.26021
1.268
1.27411
1.27845
1.28099
1.28183
1.2812
1.2793
1.27622
1.27179
1.26548
1.25644
1.24359
1.22581
1.20209
1.1717
-1.49398
-1.54103
-1.58795
-1.63766
-1.69279
-1.75513
-1.82521
-1.90205
-1.98331
-2.06559
-2.14504
-2.21795
-2.28125
-2.33285
-2.37159
-2.39705
-2.40922
-2.40812
-2.39368
-2.36574
-2.32424
-2.26939
-2.20188
-2.12285
-2.03384
-1.93655
-1.83274
-1.72405
-1.61207
-1.49833
-1.38437
-1.27162
-1.16133
-1.05445
-0.951471
-0.852537
-0.757514
-0.666201
-0.578477
-0.494372
-0.413998
-0.337366
-0.264184
-0.193701
-0.124691
-0.0555785
0.015311
0.0894582
0.167891
0.251032
0.338695
0.430193
0.524526
0.620549
0.717072
0.812886
0.906746
0.997393
1.08364
1.16452
1.23942
1.30821
1.37112
1.42866
1.48133
1.52947
1.57314
1.61219
1.64641
1.67579
1.70062
1.72149
1.73916
1.7543
1.76733
1.77831
1.787
1.79309
1.79645
1.79726
1.79599
1.79321
1.78931
1.78417
1.77702
1.76646
1.75068
1.72777
1.69602
1.65421
-1.92697
-1.98131
-2.03509
-2.09319
-2.16016
-2.23925
-2.33159
-2.43574
-2.54789
-2.66244
-2.7731
-2.87397
-2.96048
-3.02984
-3.08101
-3.11416
-3.12993
-3.12871
-3.11041
-3.0745
-3.02045
-2.94825
-2.85871
-2.75353
-2.63505
-2.50583
-2.36834
-2.22474
-2.07701
-1.92712
-1.77717
-1.62925
-1.48526
-1.34655
-1.21372
-1.08667
-0.964865
-0.847721
-0.734955
-0.626748
-0.523604
-0.425962
-0.333741
-0.246004
-0.16089
-0.0758384
0.0119397
0.104907
0.204716
0.31195
0.426139
0.546026
0.669961
0.796238
0.923241
1.0494
1.17303
1.29233
1.40544
1.51082
1.60755
1.69554
1.77543
1.84834
1.91533
1.97702
2.03337
2.08385
2.12777
2.16484
2.19545
2.22065
2.24186
2.26039
2.27695
2.29144
2.30316
2.31122
2.31516
2.31525
2.31252
2.30834
2.30378
2.29906
2.29309
2.28364
2.26769
2.24211
2.20414
2.15186
-2.36699
-2.42235
-2.47594
-2.53586
-2.61
-2.70423
-2.82087
-2.95785
-3.10891
-3.2648
-3.41516
-3.55059
-3.66429
-3.75292
-3.81627
-3.85621
-3.87497
-3.87381
-3.85241
-3.80926
-3.74269
-3.65196
-3.53796
-3.40326
-3.25161
-3.08693
-2.91262
-2.73126
-2.54495
-2.35592
-2.16693
-1.98113
-1.8015
-1.63009
-1.46754
-1.31316
-1.16543
-1.02286
-0.884793
-0.751765
-0.625223
-0.506695
-0.396792
-0.294491
-0.196962
-0.0999953
0.00112015
0.110519
0.230861
0.362857
0.505372
0.656016
0.812004
0.970854
1.1306
1.28949
1.44552
1.59611
1.73832
1.86952
1.98821
2.09443
2.18972
2.27644
2.35686
2.43215
2.50198
2.56483
2.61887
2.66309
2.69795
2.72541
2.7483
2.7692
2.78941
2.80845
2.82444
2.83515
2.83926
2.83718
2.83102
2.82386
2.81838
2.8156
2.81406
2.81005
2.79848
2.77417
2.73277
2.67135
-2.8194
-2.8659
-2.90763
-2.95804
-3.03088
-3.13692
-3.28083
-3.45964
-3.66292
-3.87508
-4.07868
-4.25843
-4.40418
-4.51233
-4.58521
-4.62869
-4.64865
-4.648
-4.62566
-4.57769
-4.49968
-4.38914
-4.24693
-4.07735
-3.88684
-3.68184
-3.467
-3.24484
-3.01673
-2.78459
-2.55201
-2.32405
-2.10584
-1.90079
-1.70954
-1.53
-1.35848
-1.19143
-1.0273
-0.867368
-0.715228
-0.574938
-0.448827
-0.336039
-0.232161
-0.130063
-0.021563
0.100441
0.240289
0.398682
0.572963
0.758373
0.949984
1.14424
1.33923
1.53376
1.7259
1.912
2.08708
2.2463
2.38688
2.50912
2.61637
2.71367
2.80582
2.89517
2.98069
3.05853
3.12417
3.17486
3.21112
3.23679
3.25764
3.27904
3.30358
3.32989
3.35337
3.36861
3.37233
3.365
3.351
3.33698
3.32913
3.33036
3.33864
3.34737
3.34765
3.33085
3.29026
3.22164
-3.29417
-3.31629
-3.32688
-3.348
-3.40403
-3.51516
-3.69068
-3.92628
-4.20428
-4.49779
-4.77663
-5.01532
-5.19829
-5.32262
-5.39657
-5.43511
-5.4521
-5.45347
-5.43588
-5.38941
-5.30356
-5.17194
-4.99535
-4.7816
-4.54295
-4.29091
-4.03192
-3.76697
-3.49427
-3.21388
-2.93038
-2.65286
-2.39116
-2.15153
-1.93457
-1.73519
-1.54497
-1.35567
-1.16361
-0.971574
-0.787974
-0.622558
-0.481459
-0.364524
-0.264559
-0.169093
-0.0634205
0.0649595
0.223321
0.411961
0.624872
0.852162
1.08453
1.31695
1.54889
1.78189
2.01536
2.2442
2.45911
2.65037
2.8124
2.94587
3.05779
3.15881
3.25927
3.36419
3.47095
3.57031
3.65149
3.70791
3.74004
3.75563
3.76668
3.78486
3.8157
3.85593
3.89464
3.91917
3.92178
3.9029
3.8715
3.84166
3.82728
3.83543
3.86298
3.89728
3.92179
3.92217
3.88849
3.81526
-3.80972
-3.78335
-3.73106
-3.68784
-3.69806
-3.80097
-4.01431
-4.33218
-4.72362
-5.14194
-5.53271
-5.85277
-6.07715
-6.20575
-6.25918
-6.27286
-6.2783
-6.2865
-6.28794
-6.25808
-6.17355
-6.01967
-5.79745
-5.52187
-5.21845
-4.9101
-4.60548
-4.30032
-3.98293
-3.64763
-3.30014
-2.95885
-2.64461
-2.36948
-2.13416
-1.92703
-1.72991
-1.52365
-1.29963
-1.06332
-0.834181
-0.634766
-0.478859
-0.368102
-0.28998
-0.222287
-0.137408
-0.0130848
0.163408
0.39099
0.656823
0.93943
1.21981
1.49121
1.75792
2.03026
2.31242
2.59744
2.86617
3.09755
3.2801
3.41473
3.51599
3.60586
3.70745
3.83169
3.97303
4.10946
4.21565
4.27716
4.294
4.28223
4.26669
4.27369
4.3155
4.38536
4.45754
4.5025
4.50336
4.46
4.39093
4.32521
4.29411
4.31364
4.37866
4.46231
4.53167
4.56345
4.54453
4.4702
-4.40017
-4.28783
-4.12228
-3.95079
-3.85875
-3.92793
-4.18768
-4.63245
-5.2046
-5.82609
-6.39095
-6.82836
-7.09427
-7.19745
-7.1794
-7.12278
-7.10085
-7.12955
-7.18534
-7.20576
-7.14368
-6.96606
-6.67662
-6.30242
-5.90123
-5.52405
-5.17995
-4.85135
-4.49745
-4.09899
-3.661
-3.22585
-2.8417
-2.53003
-2.29301
-2.10428
-1.92781
-1.71701
-1.45308
-1.14443
-0.837249
-0.583932
-0.410795
-0.324188
-0.299854
-0.299668
-0.267603
-0.165623
0.0305918
0.315662
0.665396
1.03073
1.36893
1.67317
1.9598
2.2655
2.60639
2.9752
3.32813
3.61618
3.81798
3.93287
3.99183
4.0373
4.12428
4.27587
4.4835
4.69349
4.84551
4.9121
4.89057
4.81564
4.73565
4.71381
4.77634
4.91288
5.06104
5.15075
5.15003
5.0555
4.90693
4.76026
4.68939
4.72767
4.86879
5.04916
5.19683
5.27888
5.28139
5.21167
-5.12844
-4.86889
-4.52185
-4.09905
-3.78689
-3.78001
-4.09422
-4.74886
-5.61413
-6.59143
-7.43237
-8.05052
-8.34539
-8.36335
-8.1548
-7.92239
-7.85015
-7.93326
-8.13336
-8.2719
-8.27987
-8.07318
-7.67757
-7.12159
-6.54917
-6.09012
-5.73185
-5.43858
-5.07589
-4.60705
-4.01759
-3.41925
-2.93425
-2.58295
-2.3822
-2.26377
-2.17506
-1.98681
-1.67094
-1.22348
-0.762818
-0.417732
-0.218227
-0.190708
-0.275099
-0.423133
-0.498714
-0.454143
-0.230527
0.146833
0.651078
1.16069
1.56648
1.88002
2.13377
2.44959
2.85965
3.37526
3.88294
4.25842
4.48037
4.53096
4.48647
4.40828
4.4474
4.63865
4.98982
5.36026
5.59763
5.67318
5.56329
5.35557
5.12012
5.03168
5.12983
5.42293
5.74792
5.92849
5.93105
5.72809
5.41945
5.08549
4.92683
4.99296
5.30177
5.68248
5.95588
6.1082
6.12164
6.07353
-6.11252
-5.57557
-5.02998
-4.08726
-3.27439
-3.16847
-3.50919
-4.56055
-5.86087
-7.55166
-8.79314
-9.73672
-9.9938
-9.85399
-9.16312
-8.48996
-8.37434
-8.56714
-9.1687
-9.5248
-9.72393
-9.45118
-8.90832
-7.96338
-7.03285
-6.51016
-6.1893
-6.12498
-5.80647
-5.28812
-4.38642
-3.44893
-2.83393
-2.4188
-2.35265
-2.38039
-2.56569
-2.44054
-2.07859
-1.32195
-0.522542
-0.0426423
0.221115
0.102934
-0.159833
-0.652201
-0.904301
-1.00209
-0.71485
-0.20669
0.626878
1.43785
1.89442
2.17041
2.21568
2.49522
2.95804
3.78373
4.62499
5.11848
5.38617
5.2625
5.0261
4.60673
4.54772
4.76733
5.46451
6.21468
6.57872
6.6972
6.37273
5.9313
5.28869
5.07668
5.19839
5.88284
6.63859
6.95841
7.00388
6.54877
5.96442
5.1543
4.83667
4.90497
5.62748
6.46669
6.88578
7.13411
7.04717
7.10653
-7.61034
-6.29405
-6.10946
-3.88837
-1.744
-1.91395
-1.90097
-4.01391
-5.54546
-9.15903
-10.583
-12.4116
-12.2139
-12.1383
-10.1461
-8.25477
-8.45455
-8.61256
-10.5576
-11.0039
-11.8476
-11.2183
-10.7181
-8.78448
-6.92927
-6.63956
-6.2774
-7.17746
-6.82484
-6.52123
-4.80674
-3.01411
-2.44567
-1.75204
-2.18786
-2.27004
-3.40332
-3.23517
-3.05443
-1.48179
0.178136
0.643999
1.2107
0.605008
0.286264
-1.22704
-1.53186
-2.10419
-1.51693
-1.02836
0.635695
2.22589
2.48295
2.79352
1.96072
2.27741
2.53445
4.17042
5.86852
6.30439
6.85617
6.15706
5.82984
4.28694
4.24752
4.20905
5.86366
7.62591
7.91421
8.35988
7.3514
6.79752
4.83804
4.64197
4.45743
6.24092
8.15784
8.38422
8.79843
7.55641
6.83541
4.51483
4.1917
3.87575
5.78594
7.85661
8.06234
8.64363
7.76294
8.44681
-10.5465
-5.38278
-10.1212
-3.57881
3.11911
-0.922897
2.7685
-4.30456
-2.23208
-13.9195
-11.7904
-18.0047
-14.258
-17.1827
-10.9838
-5.00857
-8.59502
-6.0847
-14.105
-11.9107
-16.0926
-12.7994
-14.5922
-9.49268
-4.57139
-6.87335
-4.54787
-10.0339
-7.77263
-9.786
-5.33952
-0.816392
-2.2376
0.541302
-2.53223
-0.645981
-6.11494
-4.04778
-6.03451
-1.7671
2.59848
1.18569
3.88886
0.694115
2.45282
-3.5419
-1.77393
-4.87586
-2.17658
-3.54242
0.751322
4.93408
2.99489
5.06363
0.0509736
2.14606
0.12567
4.46826
8.93024
7.32402
10.1282
6.5167
8.38485
1.80278
3.94661
1.21342
6.10853
11.1603
9.02387
12.1173
7.67623
9.68859
1.84888
4.19145
0.883326
6.40767
12.1123
9.54038
12.9788
7.81467
10.0106
0.999936
3.53723
-0.358207
5.71415
11.9329
8.69891
12.2592
6.22669
10.8383
-20.6349
9.7878
-30.3775
-3.49279
23.4482
-11.0673
22.9394
-17.7641
20.8962
-38.5751
-0.982342
-37.9412
-6.69452
-35.3647
-11.4985
12.0071
-17.5142
11.6079
-32.3608
-3.63518
-31.1012
-7.05616
-28.3907
-9.94365
8.18851
-13.7701
8.43072
-24.0458
-2.56452
-22.3526
-5.98229
9.94158
-8.07737
11.2625
-10.0184
11.5699
-19.6785
0.977366
-18.0206
-2.19378
13.3397
-4.19971
15.06
-6.34997
15.7841
-17.0354
4.99626
-16.0019
3.01697
-14.2071
1.02603
16.4571
-2.26543
17.5302
-12.0949
7.94004
-11.4469
4.59308
20.7291
1.99153
22.6374
-1.01554
23.1069
-13.2481
10.6672
-12.7685
6.12625
25.0444
2.60087
26.7229
-1.29348
26.765
-15.8044
11.8763
-15.4112
6.31322
27.9832
2.0401
29.5451
-2.52715
29.3217
-19.1455
12.1443
-18.9471
5.43019
29.6196
-0.449493
29.687
-10.6384
19.9053
28957.7
28914.4
28870.7
28826.6
28782.1
28737.2
28692
28646.5
28600.8
28554.9
28508.8
28462.5
28416.2
28369.7
28323.3
0.674594
0.641792
0.603646
0.560938
0.51467
0.465905
0.41565
0.364771
0.313935
0.263604
0.21404
0.165331
0.117427
0.0701733
0.0233415
1.13048
1.07537
1.01096
0.93871
0.860439
0.778062
0.69336
0.607828
0.522602
0.438439
0.355745
0.274633
0.194982
0.116491
0.0387445
1.59648
1.51823
1.42609
1.32247
1.21029
1.09252
0.971881
0.850571
0.730204
0.611803
0.49587
0.382479
0.271376
0.162066
0.0538919
2.07757
1.97478
1.85255
1.71465
1.56557
1.40972
1.25097
1.09229
0.935776
0.782654
0.633423
0.488022
0.345971
0.206501
0.0686498
2.5803
2.45069
2.29458
2.11792
1.9275
1.72973
1.52987
1.33176
1.1379
0.949562
0.767106
0.590185
0.417969
0.249309
0.0828543
3.11329
2.95308
2.75712
2.53489
2.2967
2.05171
1.80689
1.5669
1.33441
1.11053
0.895209
0.687609
0.48639
0.2899
0.0963086
3.6885
3.49141
3.24604
2.96789
2.67272
2.37343
2.07892
1.79438
1.52221
1.26287
1.01553
0.778613
0.550055
0.327578
0.108783
4.32308
4.07848
3.76815
3.41828
3.05312
2.69046
2.3409
2.00934
1.69704
1.40309
1.12538
0.861202
0.607606
0.361555
0.120019
5.04247
4.73191
4.33035
3.88451
3.43162
2.99484
2.58501
2.20499
1.85341
1.52696
1.2216
0.933149
0.657568
0.390994
0.129745
5.88733
5.47599
4.9366
4.35771
3.79452
3.27285
2.79963
2.37227
1.9846
1.62965
1.30081
0.992157
0.698472
0.415078
0.1377
6.93796
6.34614
5.5807
4.81354
4.11542
3.50262
2.96862
2.49999
2.08306
1.70616
1.35974
1.03613
0.729037
0.433115
0.143665
8.39721
7.39056
6.22714
5.19908
4.35016
3.65346
3.07235
2.57604
2.1415
1.75211
1.39579
1.06354
0.748382
0.444657
0.147504
10.8099
8.59165
6.73993
5.40556
4.43239
3.68864
3.09133
2.59031
2.15474
1.76492
1.40769
1.07378
0.756247
0.449601
0.149191
15.4088
9.4248
6.73484
5.25049
4.28506
3.57747
3.01412
2.53915
2.12215
1.74504
1.39619
1.06756
0.753177
0.448281
0.148835
-0.147901
-0.445602
-0.749113
-1.06266
-1.39108
-1.74022
-2.11757
-2.53336
-3.00253
-3.5487
-4.2128
-5.07441
-6.31068
-8.37824
-12.6264
-0.144751
-0.435858
-0.731838
-1.03615
-1.35257
-1.68542
-2.03974
-2.4216
-2.8384
-3.29872
-3.8104
-4.37043
-4.91844
-5.12295
-3.36652
-0.140481
-0.422709
-0.708745
-1.00117
-1.3026
-1.61564
-1.94271
-2.28554
-2.64402
-3.01301
-3.37427
-3.67453
-3.76472
-3.22955
-0.935532
-0.135327
-0.406897
-0.681182
-0.959888
-1.2445
-1.53605
-1.83466
-2.13859
-2.44233
-2.73264
-2.98029
-3.12412
-3.04547
-2.5571
-1.58416
-0.129532
-0.389179
-0.650516
-0.914456
-1.18152
-1.45149
-1.72285
-1.99173
-2.24999
-2.48189
-2.6582
-2.7278
-2.61106
-2.22083
-1.60131
-0.123326
-0.370268
-0.618007
-0.866804
-1.11644
-1.36588
-1.61269
-1.85219
-2.07597
-2.26975
-2.41011
-2.46046
-2.36666
-2.04358
-1.25624
-0.11691
-0.350782
-0.584729
-0.818519
-1.05144
-1.28201
-1.50752
-1.72348
-1.92278
-2.09475
-2.22445
-2.29294
-2.28147
-2.18858
-2.10909
-0.110452
-0.331224
-0.551528
-0.770789
-0.988014
-1.20157
-1.40891
-1.60628
-1.7885
-1.94911
-2.08127
-2.18072
-2.25276
-2.32411
-2.43953
-0.104079
-0.311974
-0.519019
-0.724427
-0.927077
-1.12538
-1.31713
-1.4995
-1.66919
-1.82321
-1.96073
-2.08738
-2.22442
-2.4289
-2.84182
-0.0978824
-0.293298
-0.487617
-0.679936
-0.869106
-1.05366
-1.23178
-1.40143
-1.56069
-1.70871
-1.84769
-1.98667
-2.14911
-2.38876
-2.83235
-0.0919228
-0.275368
-0.457574
-0.637588
-0.814286
-0.986341
-1.15225
-1.3105
-1.45991
-1.60043
-1.73456
-1.86953
-2.02006
-2.2068
-2.41926
-0.086236
-0.258282
-0.429024
-0.5975
-0.762635
-0.923224
-1.07797
-1.22563
-1.36522
-1.49652
-1.62073
-1.74142
-1.86577
-2.00681
-2.1942
-0.0808397
-0.242087
-0.402017
-0.559691
-0.714086
-0.864095
-1.00855
-1.14629
-1.27623
-1.39747
-1.50924
-1.61059
-1.6998
-1.77445
-1.82721
-0.0757384
-0.22679
-0.37655
-0.524116
-0.668527
-0.808758
-0.943726
-1.07229
-1.19321
-1.30492
-1.40489
-1.48802
-1.54387
-1.55713
-1.5529
-0.0709273
-0.212372
-0.352579
-0.490692
-0.625817
-0.75701
-0.883275
-1.00354
-1.11653
-1.22047
-1.31213
-1.38421
-1.41744
-1.35178
-0.950706
-0.0663952
-0.198798
-0.330034
-0.459303
-0.585783
-0.708619
-0.826924
-0.939758
-1.04607
-1.14449
-1.23289
-1.30721
-1.35962
-1.37924
-1.39034
-0.0621265
-0.186019
-0.308825
-0.429811
-0.548226
-0.663311
-0.774301
-0.880442
-0.98102
-1.07543
-1.16333
-1.24526
-1.32449
-1.41245
-1.536
-0.058103
-0.173977
-0.288854
-0.402063
-0.51293
-0.620784
-0.724975
-0.824919
-0.920198
-1.01082
-1.09784
-1.18504
-1.28318
-1.4208
-1.66807
-0.0543044
-0.162611
-0.270013
-0.375902
-0.479676
-0.58074
-0.67853
-0.772564
-0.862549
-0.948651
-1.03216
-1.11708
-1.21436
-1.35284
-1.61096
-0.0507101
-0.151859
-0.252194
-0.351171
-0.448252
-0.542907
-0.634627
-0.722953
-0.80753
-0.888227
-0.965394
-1.0404
-1.11683
-1.20163
-1.29286
-0.0472991
-0.141656
-0.23529
-0.327719
-0.418464
-0.507053
-0.593014
-0.675877
-0.755142
-0.830193
-0.900036
-0.962598
-1.01341
-1.04582
-1.07913
-0.0440505
-0.13194
-0.219196
-0.305397
-0.390125
-0.472964
-0.553488
-0.631235
-0.70562
-0.775717
-0.839637
-0.892807
-0.922697
-0.889244
-0.632716
-0.0409437
-0.122649
-0.203808
-0.28406
-0.36305
-0.440425
-0.515828
-0.588864
-0.659022
-0.725476
-0.786615
-0.839031
-0.875915
-0.887454
-0.886864
-0.0379587
-0.113722
-0.189023
-0.263563
-0.337048
-0.409199
-0.479749
-0.548429
-0.614941
-0.678877
-0.739568
-0.795896
-0.846666
-0.893948
-0.955499
-0.035076
-0.1051
-0.174743
-0.243761
-0.311924
-0.379028
-0.444904
-0.509438
-0.572596
-0.634486
-0.695476
-0.756481
-0.819741
-0.890414
-0.977094
-0.0322772
-0.0967283
-0.160873
-0.224517
-0.28749
-0.349655
-0.410931
-0.471339
-0.531075
-0.590672
-0.651304
-0.715379
-0.787574
-0.875634
-0.984608
-0.0295456
-0.0885552
-0.147324
-0.205705
-0.263573
-0.320844
-0.3775
-0.433644
-0.489595
-0.546086
-0.604664
-0.668514
-0.744299
-0.846193
-1.00395
-0.0268659
-0.0805353
-0.134021
-0.187215
-0.240027
-0.292407
-0.344366
-0.396024
-0.447684
-0.499997
-0.554281
-0.613232
-0.682802
-0.777814
-0.941602
-0.0242249
-0.0726289
-0.120899
-0.168955
-0.216736
-0.26421
-0.311386
-0.358345
-0.405265
-0.452486
-0.500575
-0.550443
-0.603558
-0.661536
-0.715139
-0.0216113
-0.0648022
-0.107901
-0.150853
-0.193618
-0.236169
-0.278503
-0.320636
-0.36259
-0.404324
-0.445554
-0.485269
-0.520873
-0.548169
-0.576034
-0.0190152
-0.0570265
-0.0949823
-0.13285
-0.170605
-0.208229
-0.245704
-0.283
-0.320019
-0.356467
-0.391507
-0.422821
-0.443906
-0.434288
-0.313218
-0.0164281
-0.0492766
-0.0821026
-0.114894
-0.147643
-0.180342
-0.212977
-0.245503
-0.277799
-0.309545
-0.339974
-0.367349
-0.388215
-0.397701
-0.401299
-0.0138423
-0.0415296
-0.0692254
-0.0969376
-0.124677
-0.152453
-0.180271
-0.208115
-0.235916
-0.2635
-0.290497
-0.316278
-0.340373
-0.365089
-0.405486
-0.0112507
-0.0337644
-0.0563158
-0.0789324
-0.101645
-0.124488
-0.147496
-0.170705
-0.194141
-0.217825
-0.241803
-0.266265
-0.292025
-0.321493
-0.357141
-0.00864663
-0.0259612
-0.0433407
-0.0608315
-0.0784853
-0.0963616
-0.114532
-0.133086
-0.152148
-0.17191
-0.192718
-0.215254
-0.241027
-0.273502
-0.320649
-0.00602391
-0.0181012
-0.0302684
-0.0425892
-0.0551347
-0.0679878
-0.0812519
-0.0950645
-0.109621
-0.125226
-0.142373
-0.161897
-0.185304
-0.215215
-0.253307
-0.00337698
-0.0101677
-0.0170702
-0.0241635
-0.0315349
-0.0392862
-0.0475443
-0.0564775
-0.0663225
-0.0774279
-0.090312
-0.105742
-0.124997
-0.151137
-0.196237
-0.000700906
-0.00214571
-0.00372094
-0.00551803
-0.0076368
-0.0101918
-0.0133229
-0.0172118
-0.0221062
-0.0283532
-0.0364185
-0.0468284
-0.0598462
-0.0737883
-0.0750434
0.00200853
0.00597743
0.00980054
0.0133768
0.0165978
0.0193425
0.0214681
0.0227957
0.0230886
0.0220229
0.0191654
0.0139968
0.00599574
-0.00515355
-0.0188322
0.00475482
0.014212
0.023511
0.0325434
0.0411957
0.0493456
0.0568557
0.0635636
0.069264
0.0736788
0.076414
0.0768877
0.0740619
0.0653293
0.0418357
0.00754081
0.0225665
0.0374236
0.0519983
0.0661741
0.0798307
0.0928418
0.105072
0.116367
0.126533
0.135289
0.142166
0.146266
0.14614
0.144331
0.0103689
0.0310476
0.0515488
0.0717538
0.0915438
0.110801
0.129411
0.14727
0.164289
0.180397
0.195518
0.209465
0.221444
0.228205
0.216427
0.013241
0.0396612
0.0658956
0.0918204
0.117313
0.142256
0.166541
0.19009
0.212877
0.234974
0.256609
0.278215
0.300301
0.323216
0.351335
0.0161591
0.0484129
0.0804727
0.112209
0.143493
0.174201
0.204221
0.233478
0.261979
0.289899
0.317761
0.346705
0.378639
0.414689
0.442706
0.019125
0.057308
0.0952894
0.132933
0.170102
0.206657
0.242468
0.277431
0.311519
0.344898
0.378206
0.413192
0.45417
0.511819
0.617376
0.0221401
0.0663515
0.110355
0.154008
0.197162
0.239661
0.281338
0.322027
0.361585
0.399979
0.437533
0.475593
0.518176
0.575762
0.672278
0.0252058
0.0755476
0.125678
0.175449
0.224704
0.273266
0.320929
0.367443
0.41249
0.455673
0.496556
0.53493
0.571808
0.612748
0.677381
0.0283226
0.0848984
0.141263
0.197268
0.252751
0.307524
0.36135
0.413909
0.464719
0.512994
0.557367
0.595381
0.622655
0.633353
0.639279
0.0314903
0.0944032
0.157111
0.219468
0.281316
0.342468
0.402683
0.461621
0.518736
0.57305
0.622639
0.663362
0.685041
0.657339
0.464278
0.0347073
0.104058
0.173214
0.24204
0.310389
0.378089
0.444932
0.510628
0.574724
0.63641
0.69411
0.744638
0.781745
0.796213
0.800067
0.037971
0.113854
0.189559
0.264961
0.339933
0.414332
0.488007
0.560776
0.63241
0.702559
0.770598
0.835299
0.894201
0.942521
0.967769
0.041278
0.123781
0.206124
0.288198
0.369894
0.451105
0.531738
0.611741
0.691151
0.770193
0.849438
0.93005
1.01405
1.1049
1.21517
0.044624
0.133825
0.222887
0.311714
0.400214
0.488304
0.575935
0.663145
0.750173
0.837706
0.927356
1.0225
1.12917
1.25386
1.37824
0.0480042
0.143973
0.239823
0.335471
0.430837
0.525844
0.620451
0.714701
0.808868
0.90377
1.00149
1.107
1.23182
1.40309
1.6933
0.0514139
0.15421
0.256908
0.35944
0.461726
0.563686
0.665238
0.766341
0.867077
0.967899
1.07025
1.17815
1.30224
1.46979
1.74908
0.0548474
0.164519
0.27412
0.383591
0.492861
0.60183
0.710361
0.818257
0.925247
1.03099
1.13518
1.23812
1.34251
1.45895
1.6155
0.0582986
0.174884
0.291429
0.407895
0.52422
0.640299
0.755946
0.870824
0.984303
1.09517
1.20103
1.29714
1.37443
1.42031
1.4609
0.0617599
0.185281
0.308802
0.43231
0.555767
0.679086
0.802085
0.924383
1.04519
1.16284
1.27367
1.36927
1.42818
1.38538
0.990018
0.0652218
0.195682
0.326191
0.456771
0.587423
0.718114
0.84873
0.978996
1.10829
1.23526
1.35692
1.46692
1.55259
1.59533
1.61962
0.0686733
0.206055
0.343539
0.481191
0.619067
0.757211
0.895636
1.0343
1.17303
1.31137
1.44828
1.5815
1.70684
1.81813
1.90502
0.072102
0.216359
0.360777
0.505465
0.650538
0.796127
0.942393
1.08957
1.23804
1.3885
1.54223
1.7016
1.87088
2.05791
2.28604
0.0754947
0.226556
0.377833
0.52948
0.681663
0.834587
0.988534
1.14396
1.30169
1.46336
1.63226
1.81486
2.02261
2.26919
2.5305
0.0788389
0.236605
0.394639
0.55313
0.712283
0.872349
1.03366
1.19676
1.36262
1.53322
1.71281
1.91067
2.1474
2.47029
3.00097
0.0821225
0.246471
0.411133
0.576325
0.74228
0.909255
1.07757
1.24765
1.42026
1.59685
1.78069
1.97952
2.21237
2.52713
3.04671
0.0853349
0.256122
0.427263
0.598998
0.771575
0.945242
1.12024
1.29681
1.47514
1.65545
1.83817
2.02477
2.22048
2.44177
2.72354
0.0884665
0.265529
0.442983
0.621092
0.80012
0.980311
1.16185
1.34475
1.52865
1.71239
1.89298
2.06373
2.21082
2.31443
2.41784
0.0915084
0.274666
0.458251
0.642552
0.827862
1.01445
1.20251
1.39199
1.58229
1.77151
1.95464
2.11913
2.23138
2.18725
1.58116
0.0944526
0.283509
0.473022
0.663314
0.85472
1.04758
1.24218
1.43866
1.63669
1.83485
2.02927
2.21082
2.36054
2.45033
2.51965
0.0972923
0.292034
0.487255
0.683303
0.880571
1.0795
1.28056
1.48427
1.69099
1.90079
2.11283
2.32463
2.53132
2.72765
2.91294
0.100023
0.300226
0.500912
0.702448
0.905271
1.10993
1.31712
1.52777
1.74317
1.96516
2.19657
2.44201
2.70929
3.01263
3.38782
0.102645
0.308082
0.513978
0.720697
0.928698
1.1386
1.35126
1.56798
1.79076
2.02297
2.27057
2.54422
2.86222
3.24773
3.67872
0.105164
0.315619
0.526472
0.738054
0.950804
1.16534
1.38259
1.60397
1.83179
2.07011
2.32646
2.61564
2.96827
3.45125
4.22842
0.107595
0.322877
0.538457
0.754596
0.971664
1.19021
1.41105
1.63547
1.86553
2.10472
2.35953
2.64299
2.98379
3.45047
4.22082
0.10996
0.329928
0.55005
0.770487
0.991493
1.21347
1.43702
1.66305
1.8929
2.12848
2.37271
2.63051
2.91187
3.23881
3.64064
0.112293
0.336867
0.561419
0.785977
1.01064
1.23562
1.46125
1.68798
1.91629
2.14623
2.37644
2.60166
2.8083
2.97511
3.16211
0.114633
0.34382
0.572778
0.801385
1.02956
1.25731
1.48469
1.7118
1.93852
2.16378
2.38362
2.5857
2.73237
2.69737
1.97142
0.117026
0.350926
0.584375
0.817081
1.04878
1.27924
1.50832
1.73589
1.96174
2.18506
2.40311
2.6082
2.78257
2.89944
3.01468
0.119523
0.358342
0.59648
0.833467
1.06883
1.30212
1.53296
1.76114
1.9867
2.21
2.43157
2.65201
2.87269
3.10259
3.38133
0.122175
0.366227
0.609375
0.850968
1.09031
1.32668
1.55944
1.78819
2.01322
2.2361
2.4608
2.69561
2.95636
3.27179
3.69411
0.12503
0.374735
0.623339
0.87002
1.11383
1.35373
1.58866
1.81781
2.04122
2.2609
2.48296
2.72117
3.002
3.36673
3.84091
0.128132
0.383999
0.638629
0.891046
1.14006
1.38421
1.62187
1.85138
2.07177
2.28403
2.49388
2.71709
2.98934
3.3856
4.06161
0.131506
0.394114
0.655444
0.914419
1.16962
1.41919
1.66069
1.89127
2.10794
2.30879
2.4955
2.67888
2.89053
3.21013
3.85182
0.135158
0.405109
0.67388
0.940389
1.20309
1.45972
1.70708
1.94076
2.15507
2.34334
2.49937
2.62098
2.7167
2.81093
2.89631
0.139059
0.416913
0.69387
0.968983
1.24073
1.50665
1.76292
2.00367
2.22023
2.40024
2.52711
2.58099
2.54386
2.41782
2.31132
0.143142
0.429329
0.715122
0.999889
1.28237
1.56024
1.82948
2.08333
2.31074
2.49399
2.60548
2.60414
2.43274
2.01107
1.15108
0.147287
0.442006
0.737064
1.03235
1.32717
1.61978
1.90666
2.18129
2.43186
2.63755
2.76217
2.74531
2.49539
1.90865
0.992286
0.151328
0.454433
0.758821
1.0651
1.37345
1.68323
1.99231
2.2959
2.58412
2.83737
3.01709
3.04826
2.79191
2.03503
0.711544
0.155051
0.465953
0.779236
1.09639
1.4187
1.74709
2.08171
2.42112
2.76063
3.08825
3.37515
3.55084
3.43593
2.55479
-0.363802
0.158212
0.475806
0.796936
1.12404
1.45967
1.80658
2.1677
2.54623
2.94536
3.36741
3.81044
4.25515
4.61193
4.48927
2.11861
0.160554
0.483186
0.810459
1.14572
1.49276
1.8561
2.24154
2.65698
3.11415
3.63203
4.24461
5.02056
6.12063
7.98425
11.9876
11.7171
7.6081
5.74808
4.67551
3.93255
3.35351
2.8684
2.44299
2.05831
1.70271
1.36839
1.04971
0.742263
0.442424
0.146994
1.46147
3.99645
4.19171
3.88422
3.48096
3.07571
2.68912
2.32373
1.97754
1.6476
1.33091
1.0247
0.726417
0.433668
0.144195
-1.09713
2.00964
2.9843
3.15927
3.03067
2.78493
2.49509
2.1911
1.88546
1.58323
1.2861
0.994158
0.706696
0.422621
0.140639
0.0908628
1.50332
2.33208
2.64499
2.66169
2.52474
2.31088
2.05957
1.79094
1.51526
1.23764
0.96046
0.684596
0.410105
0.136586
0.424132
1.40221
2.038
2.33632
2.39937
2.31796
2.15266
1.94002
1.70127
1.44859
1.18883
0.925808
0.661515
0.396896
0.132287
0.768777
1.53867
1.97819
2.19095
2.23731
2.16942
2.02729
1.83854
1.62123
1.38676
1.14224
0.892
0.638636
0.383665
0.127958
1.74804
1.90446
2.07579
2.16107
2.15453
2.07241
1.93425
1.75687
1.55305
1.33188
1.09958
0.860328
0.616848
0.370932
0.123771
2.26266
2.25981
2.23309
2.19487
2.1242
2.01429
1.8684
1.6935
1.49687
1.28467
1.06172
0.83156
0.596732
0.359051
0.119843
3.13802
2.63167
2.39832
2.25113
2.12107
1.98113
1.82266
1.6452
1.45145
1.24489
1.02883
0.806006
0.578579
0.348221
0.116245
3.35474
2.81388
2.50366
2.29542
2.12477
1.96078
1.79007
1.60818
1.41488
1.21168
1.00061
0.783626
0.562445
0.338503
0.113002
3.2378
2.83583
2.53813
2.31353
2.1238
1.94508
1.76521
1.57904
1.38515
1.18391
0.976466
0.764138
0.548215
0.32986
0.110105
3.14493
2.78533
2.52177
2.30738
2.11513
1.93014