/*--------------------------------*- C++ -*----------------------------------*\
| =========                 |                                                 |
| \\      /  F ield         | OpenFOAM: The Open Source CFD Toolbox           |
|  \\    /   O peration     | Version:  5.x                                   |
|   \\  /    A nd           | Web:      www.OpenFOAM.org                      |
|    \\/     M anipulation  |                                                 |
\*---------------------------------------------------------------------------*/
FoamFile
{
    version     2.0;
    format      ascii;
    class       volScalarField;
    location    "0.8";
    object      gradTy;
}
// * * * * * * * * * * * * * * * * * * * * * * * * * * * * * * * * * * * * * //

dimensions      [0 -1 0 1 0 0 0];

internalField   nonuniform List<scalar> 
2048
(
-24.8772
-24.8457
-24.7839
-24.6946
-24.581
-24.4472
-24.2977
-24.1367
-23.9684
-23.7966
-23.6245
-23.4548
-23.2898
-23.1311
-22.98
-22.8375
-22.7039
-22.5797
-22.4649
-22.3595
-22.2633
-22.1762
-22.0978
-22.028
-21.9665
-21.9132
-21.8678
-21.8301
-21.8001
-21.7777
-21.7629
-21.7556
-21.756
-21.7643
-21.7805
-21.805
-21.8382
-21.8803
-21.9319
-21.9934
-22.0654
-22.1485
-22.2432
-22.3502
-22.47
-22.603
-22.7497
-22.9101
-23.0842
-23.2716
-23.4716
-23.6829
-23.9038
-24.1316
-24.3632
-24.5948
-24.8217
-25.0386
-25.2399
-25.4197
-25.572
-25.6917
-25.7741
-25.8162
-24.9019
-24.8693
-24.8056
-24.7134
-24.5965
-24.4592
-24.3061
-24.1418
-23.9705
-23.796
-23.6217
-23.4502
-23.2837
-23.124
-22.9722
-22.8292
-22.6954
-22.5711
-22.4563
-22.351
-22.2549
-22.1679
-22.0898
-22.0202
-21.9589
-21.9057
-21.8604
-21.8228
-21.7928
-21.7705
-21.7556
-21.7482
-21.7485
-21.7566
-21.7726
-21.7969
-21.8297
-21.8715
-21.9226
-21.9837
-22.0553
-22.1379
-22.2322
-22.3388
-22.4582
-22.5909
-22.7374
-22.8979
-23.0723
-23.2604
-23.4615
-23.6743
-23.8971
-24.1275
-24.3624
-24.5977
-24.8288
-25.0504
-25.2565
-25.441
-25.5977
-25.7209
-25.806
-25.8494
-24.9495
-24.9148
-24.847
-24.7494
-24.626
-24.4819
-24.3219
-24.1511
-23.974
-23.7945
-23.6159
-23.4411
-23.272
-23.1103
-22.9572
-22.8133
-22.6791
-22.5546
-22.4399
-22.3348
-22.2391
-22.1524
-22.0746
-22.0053
-21.9443
-21.8914
-21.8463
-21.8089
-21.7791
-21.7567
-21.7418
-21.7343
-21.7344
-21.7421
-21.7578
-21.7815
-21.8137
-21.8548
-21.9052
-21.9655
-22.0361
-22.1179
-22.2113
-22.317
-22.4357
-22.5679
-22.7142
-22.8747
-23.0497
-23.2389
-23.4419
-23.6575
-23.8842
-24.1195
-24.3603
-24.6028
-24.8421
-25.0726
-25.288
-25.4816
-25.6467
-25.777
-25.8672
-25.9133
-25.0184
-24.9805
-24.9067
-24.8009
-24.668
-24.5138
-24.3439
-24.1638
-23.9783
-23.7917
-23.6072
-23.4276
-23.2549
-23.0906
-22.9356
-22.7906
-22.6558
-22.5313
-22.4167
-22.312
-22.2167
-22.1305
-22.0532
-21.9844
-21.9239
-21.8713
-21.8266
-21.7894
-21.7597
-21.7374
-21.7224
-21.7147
-21.7145
-21.7218
-21.7369
-21.7599
-21.7913
-21.8314
-21.8807
-21.9398
-22.0092
-22.0896
-22.1817
-22.2863
-22.4039
-22.5353
-22.6811
-22.8416
-23.0172
-23.208
-23.4136
-23.633
-23.8649
-24.1071
-24.3565
-24.6091
-24.8601
-25.1035
-25.3324
-25.5395
-25.717
-25.8578
-25.9555
-26.0056
-25.1076
-25.0654
-24.9835
-24.8667
-24.7211
-24.5536
-24.3707
-24.1786
-23.9826
-23.7869
-23.5951
-23.4096
-23.2325
-23.065
-22.9079
-22.7617
-22.6264
-22.5018
-22.3875
-22.2833
-22.1886
-22.1031
-22.0264
-21.9583
-21.8983
-21.8463
-21.802
-21.7651
-21.7356
-21.7133
-21.6982
-21.6903
-21.6897
-21.6965
-21.7109
-21.7331
-21.7634
-21.8023
-21.8502
-21.9077
-21.9755
-22.0543
-22.1447
-22.2477
-22.3639
-22.4942
-22.6392
-22.7996
-22.9759
-23.1683
-23.3769
-23.6009
-23.8393
-24.09
-24.3501
-24.6156
-24.8815
-25.1415
-25.3881
-25.6128
-25.8069
-25.9616
-26.0694
-26.1248
-25.2167
-25.1689
-25.0766
-24.9457
-24.7841
-24.5999
-24.4011
-24.1945
-23.9859
-23.7796
-23.5792
-23.387
-23.2048
-23.0338
-22.8745
-22.7271
-22.5913
-22.4668
-22.3531
-22.2496
-22.1557
-22.071
-21.9952
-21.9278
-21.8685
-21.8171
-21.7733
-21.7368
-21.7075
-21.6853
-21.6701
-21.662
-21.6609
-21.6671
-21.6807
-21.7018
-21.7309
-21.7683
-21.8146
-21.8703
-21.9361
-22.0128
-22.1013
-22.2023
-22.3168
-22.4455
-22.5894
-22.7494
-22.9261
-23.1203
-23.3321
-23.5613
-23.807
-24.0675
-24.3401
-24.6209
-24.9048
-25.185
-25.4533
-25.7001
-25.9149
-26.0873
-26.2081
-26.2703
-25.3458
-25.2909
-25.1854
-25.0371
-24.8558
-24.6515
-24.4337
-24.2102
-23.9872
-23.769
-23.559
-23.3595
-23.1719
-22.9971
-22.8356
-22.6871
-22.5511
-22.4271
-22.3141
-22.2115
-22.1186
-22.0349
-21.96
-21.8935
-21.8351
-21.7844
-21.7412
-21.7052
-21.6761
-21.654
-21.6387
-21.6303
-21.6288
-21.6343
-21.6469
-21.667
-21.6946
-21.7304
-21.7748
-21.8283
-21.8919
-21.9663
-22.0523
-22.1511
-22.2634
-22.3902
-22.5327
-22.6918
-22.8687
-23.0644
-23.2794
-23.514
-23.7677
-24.0391
-24.3257
-24.6238
-24.9284
-25.2324
-25.5266
-25.8
-26.0402
-26.2343
-26.3711
-26.4417
-25.4954
-25.4316
-25.3097
-25.14
-24.9349
-24.7069
-24.4672
-24.2247
-23.9856
-23.7544
-23.5342
-23.3268
-23.1336
-22.9552
-22.7915
-22.6422
-22.5064
-22.383
-22.2711
-22.1697
-22.078
-21.9955
-21.9217
-21.8562
-21.7987
-21.7489
-21.7063
-21.6708
-21.642
-21.62
-21.6046
-21.5959
-21.5939
-21.5987
-21.6104
-21.6291
-21.6553
-21.6892
-21.7315
-21.7827
-21.8436
-21.9153
-21.9987
-22.0948
-22.2045
-22.3291
-22.4696
-22.6275
-22.8041
-23.0009
-23.219
-23.459
-23.721
-24.0039
-24.3057
-24.623
-24.9508
-25.2819
-25.6063
-25.9112
-26.1817
-26.4022
-26.5584
-26.6394
-25.6662
-25.5913
-25.4494
-25.2537
-25.0202
-24.7647
-24.5002
-24.2365
-23.9801
-23.7352
-23.5043
-23.2889
-23.09
-22.9079
-22.7424
-22.5927
-22.4574
-22.3353
-22.2248
-22.1248
-22.0345
-21.9533
-21.8807
-21.8163
-21.7599
-21.711
-21.6692
-21.6342
-21.6058
-21.5839
-21.5684
-21.5594
-21.5569
-21.5609
-21.5716
-21.589
-21.6136
-21.6455
-21.6854
-21.734
-21.7921
-21.8608
-21.9411
-22.0342
-22.1411
-22.2629
-22.4011
-22.5571
-22.7328
-22.9301
-23.1509
-23.3962
-23.6666
-23.9615
-24.2793
-24.6171
-24.9704
-25.3318
-25.6906
-26.0322
-26.3386
-26.5906
-26.7702
-26.8637
-25.8593
-25.7709
-25.6042
-25.3772
-25.1105
-24.8232
-24.531
-24.2444
-23.9698
-23.7108
-23.469
-23.2455
-23.041
-22.8556
-22.6887
-22.539
-22.4049
-22.2844
-22.1757
-22.0775
-21.9887
-21.9089
-21.8375
-21.7744
-21.7191
-21.6712
-21.6303
-21.596
-21.5679
-21.5461
-21.5306
-21.5212
-21.5182
-21.5214
-21.5311
-21.5472
-21.57
-21.5998
-21.6372
-21.6829
-21.7379
-21.8033
-21.8803
-21.9701
-22.0738
-22.1925
-22.3277
-22.4812
-22.6553
-22.8525
-23.0753
-23.3255
-23.6041
-23.9111
-24.2455
-24.6048
-24.9853
-25.3801
-25.7779
-26.1618
-26.5104
-26.7997
-27.0072
-27.1156
-26.0764
-25.9711
-25.7743
-25.5097
-25.204
-24.8808
-24.5581
-24.2472
-23.9539
-23.6806
-23.428
-23.1966
-22.9867
-22.7983
-22.6304
-22.4814
-22.3491
-22.2308
-22.1244
-22.0282
-21.9411
-21.8627
-21.7927
-21.7309
-21.6768
-21.6301
-21.5901
-21.5565
-21.5288
-21.5072
-21.4915
-21.4818
-21.4782
-21.4807
-21.4894
-21.5042
-21.5252
-21.5528
-21.5875
-21.6301
-21.6817
-21.7435
-21.8169
-21.9031
-22.0033
-22.1185
-22.2503
-22.4006
-22.5721
-22.7683
-22.9923
-23.2469
-23.5334
-23.8525
-24.2035
-24.5849
-24.994
-25.4249
-25.8661
-26.2984
-26.6961
-27.0295
-27.2701
-27.3961
-26.3191
-26.1931
-25.9596
-25.6501
-25.299
-24.9354
-24.5797
-24.2436
-23.9317
-23.6444
-23.3813
-23.1421
-22.9271
-22.7361
-22.5679
-22.4203
-22.2905
-22.1751
-22.0714
-21.9775
-21.8922
-21.8153
-21.7466
-21.6861
-21.6335
-21.588
-21.5491
-21.5161
-21.4889
-21.4674
-21.4515
-21.4415
-21.4374
-21.4393
-21.4469
-21.4603
-21.4796
-21.5049
-21.5368
-21.576
-21.6239
-21.6819
-21.7514
-21.8338
-21.9302
-22.0417
-22.1695
-22.3158
-22.4838
-22.6779
-22.9023
-23.1604
-23.4544
-23.7853
-24.1527
-24.5561
-24.9946
-25.464
-25.9532
-26.4405
-26.8951
-27.2803
-27.5598
-27.7067
-26.5899
-26.4383
-26.16
-25.7969
-25.3935
-24.9849
-24.594
-24.2324
-23.9024
-23.6021
-23.3289
-23.0822
-22.8624
-22.6692
-22.5014
-22.3561
-22.2296
-22.1178
-22.0173
-21.9259
-21.8425
-21.7669
-21.6995
-21.6404
-21.5893
-21.5453
-21.5075
-21.4754
-21.4485
-21.4271
-21.4111
-21.4007
-21.3962
-21.3973
-21.404
-21.4161
-21.4336
-21.4566
-21.4855
-21.5212
-21.5651
-21.6189
-21.6843
-21.7627
-21.8553
-21.9627
-22.0861
-22.2275
-22.3909
-22.5818
-22.8054
-23.0663
-23.3672
-23.7093
-24.0926
-24.5174
-24.9853
-25.4951
-26.0367
-26.5863
-27.1067
-27.5524
-27.8776
-28.0486
-26.8913
-26.7082
-26.3754
-25.9486
-25.4852
-25.0271
-24.5993
-24.2125
-23.8659
-23.5537
-23.271
-23.0169
-22.7926
-22.5979
-22.431
-22.2889
-22.1669
-22.0595
-21.9626
-21.8738
-21.7923
-21.718
-21.6517
-21.5941
-21.5447
-21.5023
-21.4658
-21.4344
-21.408
-21.3866
-21.3703
-21.3597
-21.3546
-21.3552
-21.361
-21.372
-21.3877
-21.4083
-21.4341
-21.466
-21.5056
-21.5549
-21.6161
-21.6904
-21.779
-21.8823
-22.0009
-22.1365
-22.294
-22.4801
-22.7019
-22.9646
-23.2717
-23.6248
-24.0232
-24.468
-24.9644
-25.5156
-26.1142
-26.7337
-27.3299
-27.8464
-28.2248
-28.4237
-27.2266
-27.0049
-26.6053
-26.1029
-25.5715
-25.0595
-24.5936
-24.1828
-23.8218
-23.4995
-23.2079
-22.9466
-22.718
-22.5221
-22.357
-22.2193
-22.1028
-22.0007
-21.9079
-21.8219
-21.7421
-21.6687
-21.6034
-21.5473
-21.4998
-21.4593
-21.4241
-21.3936
-21.3676
-21.3461
-21.3296
-21.3186
-21.3131
-21.3131
-21.3183
-21.3281
-21.3421
-21.3604
-21.383
-21.4108
-21.4458
-21.4904
-21.547
-21.6172
-21.7018
-21.8012
-21.9146
-22.0435
-22.1935
-22.3734
-22.5921
-22.8557
-23.1683
-23.5319
-23.9445
-24.4072
-24.93
-25.5229
-26.1827
-26.8805
-27.5637
-28.163
-28.603
-28.8334
-27.5993
-27.3304
-26.8494
-26.2573
-25.6492
-25.0794
-24.5749
-24.1426
-23.7703
-23.4402
-23.1403
-22.8714
-22.6387
-22.4421
-22.2796
-22.1474
-22.0378
-21.9421
-21.8537
-21.7705
-21.6923
-21.6195
-21.5548
-21.5002
-21.455
-21.4166
-21.3829
-21.3533
-21.3276
-21.3059
-21.289
-21.2776
-21.2718
-21.2714
-21.276
-21.2848
-21.2973
-21.3132
-21.3326
-21.3561
-21.3861
-21.4255
-21.4775
-21.5435
-21.6243
-21.7199
-21.8282
-21.9492
-22.0901
-22.2619
-22.4761
-22.7396
-23.0572
-23.4313
-23.8571
-24.3347
-24.8804
-25.5138
-26.2391
-27.0243
-27.807
-28.5031
-29.014
-29.2795
-28.0135
-27.6873
-27.1066
-26.4083
-25.7152
-25.0843
-24.5414
-24.091
-23.7117
-23.3768
-23.0686
-22.7915
-22.5549
-22.358
-22.1988
-22.0736
-21.9724
-21.8841
-21.8005
-21.72
-21.6432
-21.5704
-21.5059
-21.453
-21.4103
-21.3745
-21.3424
-21.3135
-21.2881
-21.2662
-21.2488
-21.237
-21.2309
-21.2302
-21.2343
-21.2423
-21.2533
-21.2671
-21.2832
-21.3021
-21.3266
-21.3605
-21.4078
-21.4695
-21.5467
-21.6392
-21.7425
-21.8545
-21.9842
-22.146
-22.3544
-22.6167
-22.9384
-23.3237
-23.7622
-24.2505
-24.814
-25.4853
-26.2801
-27.1622
-28.0582
-28.8682
-29.4598
-29.7632
-28.4738
-28.0788
-27.3757
-26.5517
-25.766
-25.0716
-24.491
-24.0276
-23.6467
-23.3107
-22.9938
-22.7069
-22.4668
-22.27
-22.1145
-21.998
-21.9071
-21.8276
-21.7488
-21.6708
-21.5952
-21.5216
-21.4565
-21.4055
-21.3661
-21.3332
-21.3028
-21.2746
-21.2495
-21.2271
-21.2089
-21.1967
-21.1904
-21.1896
-21.1935
-21.2009
-21.2105
-21.2223
-21.2352
-21.2492
-21.2676
-21.2955
-21.3379
-21.3956
-21.4692
-21.5597
-21.6586
-21.7602
-21.8764
-22.0256
-22.2272
-22.4872
-22.8122
-23.21
-23.6613
-24.1549
-24.729
-25.4335
-26.302
-27.2914
-28.3153
-29.2604
-29.9429
-30.2855
-28.985
-28.5085
-27.6548
-26.6819
-25.798
-25.0389
-24.4216
-23.9518
-23.5764
-23.2438
-22.9167
-22.6173
-22.3744
-22.1783
-22.0268
-21.921
-21.8424
-21.7732
-21.6991
-21.6232
-21.5488
-21.4733
-21.4066
-21.3579
-21.3223
-21.2931
-21.2642
-21.2367
-21.2118
-21.1887
-21.1696
-21.157
-21.1505
-21.1496
-21.1536
-21.1606
-21.169
-21.179
-21.189
-21.1975
-21.2092
-21.2305
-21.2682
-21.3217
-21.3918
-21.4819
-21.5776
-21.6672
-21.7672
-21.9009
-22.0948
-22.3514
-22.6781
-23.0915
-23.557
-24.0489
-24.6241
-25.3545
-26.301
-27.4086
-28.5754
-29.6826
-30.466
-30.8467
-29.5523
-28.9816
-27.9412
-26.792
-25.808
-24.984
-24.3307
-23.8637
-23.5018
-23.1788
-22.8382
-22.5223
-22.2783
-22.083
-21.9352
-21.8427
-21.7787
-21.7218
-21.6516
-21.5771
-21.5043
-21.4253
-21.3557
-21.3099
-21.2792
-21.2546
-21.2269
-21.1997
-21.1753
-21.151
-21.1306
-21.1177
-21.1112
-21.1104
-21.1147
-21.1217
-21.1287
-21.1373
-21.1447
-21.1473
-21.1516
-21.1655
-21.1987
-21.2481
-21.3144
-21.4064
-21.5009
-21.5764
-21.6569
-21.7716
-21.9576
-22.2099
-22.5355
-22.9695
-23.4527
-23.9335
-24.498
-25.2431
-26.2736
-27.5109
-28.8341
-30.1396
-31.0326
-31.4462
-30.1808
-29.5047
-28.2315
-26.8724
-25.7934
-24.9057
-24.2157
-23.7634
-23.4245
-23.119
-22.7593
-22.4204
-22.1787
-21.9845
-21.8391
-21.7633
-21.7166
-21.6745
-21.6066
-21.5326
-21.4625
-21.3779
-21.3033
-21.2616
-21.2369
-21.2179
-21.191
-21.1637
-21.1402
-21.1142
-21.092
-21.0789
-21.0725
-21.0719
-21.0768
-21.0842
-21.0898
-21.0975
-21.1029
-21.0987
-21.0949
-21.1001
-21.1295
-21.1749
-21.2362
-21.3336
-21.4302
-21.4885
-21.5461
-21.6369
-21.8163
-22.0632
-22.3825
-22.8451
-23.353
-23.8103
-24.35
-25.0936
-26.216
-27.5957
-29.0842
-30.6385
-31.6466
-32.0819
-30.8749
-30.0871
-28.521
-26.9108
-25.7528
-24.8035
-24.0729
-23.6517
-23.3457
-23.0691
-22.6807
-22.3094
-22.0768
-21.8833
-21.7374
-21.6831
-21.6563
-21.6325
-21.5642
-21.4894
-21.4243
-21.3308
-21.2484
-21.2128
-21.1953
-21.1836
-21.1564
-21.1286
-21.1067
-21.0782
-21.0536
-21.0407
-21.0345
-21.034
-21.0401
-21.0483
-21.0521
-21.0594
-21.0639
-21.052
-21.0392
-21.034
-21.0609
-21.1025
-21.1563
-21.2638
-21.3675
-21.4043
-21.4352
-21.4957
-21.6715
-21.9127
-22.2164
-22.7196
-23.2642
-23.6809
-24.1802
-24.8984
-26.1253
-27.6617
-29.3145
-31.1906
-32.3127
-32.7499
-31.638
-30.7419
-28.8035
-26.8909
-25.6875
-24.6779
-23.8972
-23.5301
-23.2665
-23.0351
-22.6032
-22.1856
-21.9742
-21.7803
-21.6284
-21.6028
-21.598
-21.5977
-21.5243
-21.4465
-21.3911
-21.2842
-21.1898
-21.1635
-21.1546
-21.1525
-21.1232
-21.0939
-21.0752
-21.0431
-21.0151
-21.003
-20.9972
-20.9967
-21.0044
-21.0143
-21.0152
-21.0232
-21.0284
-21.0072
-20.9846
-20.9664
-20.9931
-21.0315
-21.0728
-21.1973
-21.3157
-21.3243
-21.3253
-21.346
-21.5245
-21.7606
-22.0322
-22.5942
-23.1951
-23.5466
-23.99
-24.6475
-25.9994
-27.7099
-29.5069
-31.8132
-33.0359
-33.4439
-32.471
-31.4878
-29.0707
-26.7903
-25.6024
-24.5311
-23.6815
-23.4016
-23.1868
-23.0253
-22.5273
-22.0434
-21.8737
-21.6768
-21.5094
-21.5232
-21.5415
-21.5726
-21.4863
-21.4028
-21.365
-21.238
-21.1257
-21.1142
-21.1147
-21.1256
-21.0912
-21.0593
-21.0463
-21.0088
-20.9762
-20.966
-20.9606
-20.9599
-20.9697
-20.9826
-20.9789
-20.9885
-20.9972
-20.9643
-20.9317
-20.8965
-20.9267
-20.9629
-20.9832
-21.1341
-21.2785
-21.2484
-21.2175
-21.1844
-21.3771
-21.6107
-21.8226
-22.4695
-23.1573
-23.4073
-23.7831
-24.3277
-25.8375
-27.7457
-29.6328
-32.5328
-33.8212
-34.1549
-33.3715
-32.3517
-29.312
-26.5796
-25.5083
-24.3672
-23.4152
-23.2716
-23.105
-23.051
-22.453
-21.8744
-21.7802
-21.5744
-21.3764
-21.4465
-21.486
-21.5607
-21.4496
-21.3559
-21.3492
-21.192
-21.0535
-21.0655
-21.0752
-21.1044
-21.0601
-21.024
-21.021
-20.9752
-20.9364
-20.9298
-20.9248
-20.9233
-20.9359
-20.9537
-20.9426
-20.9552
-20.9715
-20.9229
-20.881
-20.8224
-20.8623
-20.8988
-20.8836
-21.0742
-21.261
-21.1758
-21.1144
-21.006
-21.2314
-21.4692
-21.5763
-22.3458
-23.1667
-23.2608
-23.567
-23.9203
-25.6404
-27.7817
-29.6474
-33.3898
-34.6729
-34.8703
-34.3313
-33.3717
-29.5135
-26.2187
-25.4245
-24.1919
-23.0829
-23.1492
-23.0159
-23.1276
-22.3799
-21.6662
-21.7012
-21.4756
-21.2234
-21.3758
-21.4294
-21.567
-21.4127
-21.3027
-21.3482
-21.1461
-20.9699
-21.0189
-21.0354
-21.091
-21.0294
-20.9868
-21.0007
-20.9422
-20.8952
-20.8948
-20.8901
-20.8867
-20.9029
-20.9287
-20.9053
-20.9229
-20.953
-20.8826
-20.834
-20.742
-20.8008
-20.8421
-20.7684
-21.0171
-21.2701
-21.1039
-21.0201
-20.8032
-21.0907
-21.3461
-21.2772
-22.2224
-23.2453
-23.1002
-23.3553
-23.3994
-25.4112
-27.8419
-29.482
-34.4451
-35.5921
-35.5738
-35.3343
-34.6014
-29.657
-25.6542
-25.3821
-24.0131
-22.6618
-23.0493
-22.9093
-23.2761
-22.3071
-21.4013
-21.6483
-21.3832
-21.0416
-21.3167
-21.368
-21.5985
-21.3735
-21.2381
-21.369
-21.0998
-20.8702
-20.9771
-20.9938
-21.0884
-20.9984
-20.9463
-20.9876
-20.9095
-20.8515
-20.8617
-20.8567
-20.85
-20.8705
-20.909
-20.8661
-20.8908
-20.944
-20.842
-20.7927
-20.6518
-20.7435
-20.7979
-20.6299
-20.9621
-21.3156
-21.0279
-20.9414
-20.565
-20.9589
-21.2566
-20.9021
-22.0976
-23.4226
-22.9118
-23.1709
-22.7284
-25.1548
-27.9681
-29.0333
-35.7887
-36.5742
-36.2456
-36.3535
-36.1154
-29.7188
-24.8151
-25.429
-23.8405
-22.1198
-22.9957
-22.767
-23.5252
-22.2324
-21.0557
-21.6385
-21.3011
-20.8183
-21.278
-21.295
-21.6652
-21.3288
-21.1551
-21.4209
-21.0525
-20.7478
-20.9443
-20.9479
-21.1007
-20.9657
-20.9001
-20.9847
-20.8767
-20.8043
-20.8312
-20.825
-20.8127
-20.8381
-20.8967
-20.8232
-20.8578
-20.9478
-20.7991
-20.7606
-20.5469
-20.6916
-20.7734
-20.4575
-20.9079
-21.4105
-20.9393
-20.8893
-20.2754
-20.8405
-21.2231
-20.4192
-21.9679
-23.7394
-22.6702
-23.0502
-21.8567
-24.8783
-28.228
-28.149
-37.5519
-37.6039
-36.8621
-37.3468
-38.0149
-29.6687
-23.6078
-25.6345
-23.685
-21.411
-23.025
-22.5589
-23.9138
-22.1526
-20.5962
-21.6965
-21.2331
-20.5357
-21.2734
-21.1994
-21.7808
-21.2743
-21.0436
-21.517
-21.0026
-20.5941
-20.927
-20.8932
-21.1336
-20.9294
-20.845
-20.996
-20.8428
-20.7519
-20.8045
-20.7951
-20.7743
-20.8048
-20.8946
-20.7743
-20.8224
-20.9691
-20.7501
-20.7427
-20.4204
-20.6467
-20.7791
-20.2364
-20.8523
-21.5727
-20.8239
-20.8807
-19.9122
-20.7406
-21.2778
-19.785
-21.8276
-24.2506
-22.3334
-23.0493
-20.7138
-24.5894
-28.7269
-26.6095
-39.9234
-38.6481
-37.3975
-38.2534
-40.4363
-29.4675
-21.9105
-26.0968
-23.558
-20.4724
-23.1919
-22.2383
-24.4944
-22.0625
-19.9785
-21.8566
-21.1838
-20.1691
-21.3232
-21.0642
-21.9641
-21.2037
-20.8897
-21.6751
-20.9477
-20.3973
-20.9349
-20.8225
-21.1948
-20.8865
-20.7765
-21.0272
-20.8062
-20.6922
-20.7831
-20.7673
-20.734
-20.7688
-20.9067
-20.7162
-20.7818
-21.0138
-20.689
-20.7466
-20.2626
-20.61
-20.8297
-19.9472
-20.792
-21.8263
-20.6597
-20.9409
-19.4442
-20.6646
-21.4658
-18.9413
-21.668
-25.0303
-21.8353
-23.2522
-19.2041
-24.2954
-29.6219
-24.1039
-43.1689
-39.6468
-37.8257
-38.9879
-43.5588
-29.0656
-19.5664
-26.9502
-23.4696
-19.2184
-23.5758
-21.7351
-25.3367
-21.9547
-19.1444
-22.1654
-21.1572
-19.6851
-21.4567
-20.8637
-22.2408
-21.1083
-20.6747
-21.9185
-20.8838
-20.1417
-20.9817
-20.7247
-21.2946
-20.8329
-20.6883
-21.0853
-20.764
-20.6218
-20.7685
-20.7411
-20.6908
-20.7276
-20.9378
-20.6444
-20.7322
-21.0902
-20.6066
-20.7829
-20.0601
-20.5822
-20.945
-19.5641
-20.7223
-22.2032
-20.4138
-21.1066
-18.8296
-20.6171
-21.8488
-17.8118
-21.4759
-26.1778
-21.0766
-23.7799
-17.1993
-23.9993
-31.1407
-20.2015
-47.6567
-40.4993
-38.1231
-39.4352
-47.6149
-28.4009
-16.3768
-28.3749
-23.4284
-17.5362
-24.2897
-20.9493
-26.534
-21.8195
-18.0195
-22.6865
-21.1578
-19.0403
-21.7167
-20.5615
-22.6462
-20.9779
-20.375
-22.2791
-20.8064
-19.8085
-21.0877
-20.5848
-21.4477
-20.7638
-20.5735
-21.1812
-20.7136
-20.5383
-20.7643
-20.7174
-20.6445
-20.6784
-20.9956
-20.5543
-20.6696
-21.2104
-20.4909
-20.8678
-19.7966
-20.5645
-21.1528
-19.0553
-20.6375
-22.7471
-20.0396
-21.4313
-18.0137
-20.603
-22.5102
-16.2995
-21.2342
-27.8249
-19.9143
-24.804
-14.5312
-23.6971
-33.6051
-14.318
-53.8888
-41.049
-38.2736
)
;

boundaryField
{
    left
    {
        type            calculated;
        value           nonuniform List<scalar> 
32
(
-24.8772
-24.9019
-24.9495
-25.0184
-25.1076
-25.2167
-25.3458
-25.4954
-25.6662
-25.8593
-26.0764
-26.3191
-26.5899
-26.8913
-27.2266
-27.5993
-28.0135
-28.4738
-28.985
-29.5523
-30.1808
-30.8749
-31.638
-32.471
-33.3715
-34.3313
-35.3343
-36.3535
-37.3468
-38.2534
-38.9879
-39.4352
)
;
    }
    right
    {
        type            calculated;
        value           nonuniform List<scalar> 
32
(
-25.8162
-25.8494
-25.9133
-26.0056
-26.1248
-26.2703
-26.4417
-26.6394
-26.8637
-27.1156
-27.3961
-27.7067
-28.0486
-28.4237
-28.8334
-29.2795
-29.7632
-30.2855
-30.8467
-31.4462
-32.0819
-32.7499
-33.4439
-34.1549
-34.8703
-35.5738
-36.2456
-36.8621
-37.3975
-37.8257
-38.1231
-38.2736
)
;
    }
    interface
    {
        type            calculated;
        value           nonuniform List<scalar> 
64
(
-39.5707
-49.9091
-27.9944
-14.5431
-29.2557
-23.4206
-16.5721
-24.7458
-20.4712
-27.2347
-21.7438
-17.374
-23.0092
-21.1656
-18.6716
-21.8846
-20.3799
-22.8861
-20.9025
-20.2007
-22.4932
-20.7636
-19.62
-21.1587
-20.5023
-21.5399
-20.7249
-20.5086
-21.2402
-20.6861
-20.493
-20.7654
-20.7063
-20.6207
-20.6516
-21.0325
-20.5041
-20.6345
-21.2833
-20.4231
-20.9249
-19.6474
-20.5585
-21.284
-18.7651
-20.5906
-23.0671
-19.8138
-21.6413
-17.5479
-20.6049
-22.9225
-15.4341
-21.0985
-28.7922
-19.2114
-25.4652
-13.0076
-23.5433
-35.1207
-10.7972
-57.5131
-41.2244
-38.3109
)
;
    }
    bottom
    {
        type            calculated;
        value           nonuniform List<scalar> 
64
(
-24.8708
-24.8395
-24.7783
-24.6897
-24.5769
-24.4441
-24.2954
-24.1353
-23.9679
-23.7968
-23.6252
-23.456
-23.2914
-23.133
-22.9821
-22.8396
-22.7061
-22.582
-22.4672
-22.3617
-22.2655
-22.1783
-22.0999
-22.0301
-21.9686
-21.9152
-21.8697
-21.8321
-21.8021
-21.7796
-21.7648
-21.7576
-21.758
-21.7663
-21.7826
-21.8072
-21.8404
-21.8826
-21.9343
-21.9959
-22.068
-22.1513
-22.2461
-22.3532
-22.4731
-22.6062
-22.7528
-22.9132
-23.0872
-23.2745
-23.4742
-23.6852
-23.9055
-24.1326
-24.3634
-24.594
-24.8198
-25.0355
-25.2356
-25.4141
-25.5654
-25.6841
-25.7659
-25.8076
)
;
    }
    defaultFaces
    {
        type            empty;
    }
}


// ************************************************************************* //
