/*--------------------------------*- C++ -*----------------------------------*\
| =========                 |                                                 |
| \\      /  F ield         | OpenFOAM: The Open Source CFD Toolbox           |
|  \\    /   O peration     | Version:  5.x                                   |
|   \\  /    A nd           | Web:      www.OpenFOAM.org                      |
|    \\/     M anipulation  |                                                 |
\*---------------------------------------------------------------------------*/
FoamFile
{
    version     2.0;
    format      ascii;
    class       volScalarField;
    location    "0.8";
    object      gradTx;
}
// * * * * * * * * * * * * * * * * * * * * * * * * * * * * * * * * * * * * * //

dimensions      [0 -1 0 1 0 0 0];

internalField   nonuniform List<scalar> 
2048
(
0.00717993
0.0212479
0.0344491
0.0463022
0.0564627
0.0647122
0.0709772
0.0753074
0.0778404
0.0787724
0.0783313
0.0767546
0.0742742
0.0711048
0.0674377
0.0634365
0.0592359
0.0549415
0.0506319
0.0463622
0.0421682
0.0380706
0.0340788
0.0301938
0.0264108
0.0227201
0.019108
0.0155579
0.0120505
0.00856421
0.00507611
0.00156172
-0.00200462
-0.00564977
-0.00940167
-0.013289
-0.0173408
-0.021585
-0.0260478
-0.0307514
-0.0357124
-0.0409399
-0.0464335
-0.0521811
-0.0581556
-0.0643122
-0.0705836
-0.0768752
-0.0830599
-0.0889736
-0.0944132
-0.0991357
-0.102862
-0.105284
-0.106077
-0.104915
-0.101501
-0.0955909
-0.0870355
-0.0758133
-0.062062
-0.0460945
-0.0283948
-0.00959128
0.0214721
0.063528
0.102955
0.138294
0.168504
0.192952
0.211435
0.224124
0.23145
0.234017
0.232516
0.227664
0.220154
0.210626
0.199649
0.187709
0.175204
0.162443
0.149656
0.137004
0.124588
0.112466
0.100664
0.0891826
0.0780066
0.0671065
0.0564416
0.0459621
0.0356102
0.0253224
0.0150303
0.0046615
-0.00585994
-0.0166135
-0.0276819
-0.0391507
-0.0511061
-0.0636324
-0.0768078
-0.0906997
-0.105359
-0.120814
-0.137065
-0.154079
-0.171779
-0.190036
-0.208655
-0.22736
-0.24578
-0.263431
-0.279713
-0.293905
-0.305176
-0.312605
-0.315216
-0.31203
-0.302137
-0.284789
-0.259513
-0.226223
-0.18531
-0.137704
-0.0848574
-0.0286684
0.0358263
0.105948
0.171558
0.230164
0.28002
0.320107
0.350155
0.370512
0.381967
0.385574
0.382519
0.374009
0.361204
0.345166
0.326832
0.306999
0.286316
0.265284
0.24427
0.223524
0.203201
0.183385
0.164111
0.145377
0.127152
0.109387
0.0920144
0.0749506
0.0581003
0.0413587
0.0246133
0.00774566
-0.00936822
-0.0268583
-0.0448604
-0.0635154
-0.0829668
-0.103355
-0.124813
-0.147455
-0.171368
-0.196605
-0.223171
-0.251018
-0.28003
-0.310007
-0.340644
-0.371503
-0.401988
-0.431319
-0.458516
-0.482392
-0.501575
-0.514531
-0.519621
-0.515186
-0.499661
-0.471732
-0.430531
-0.375836
-0.308245
-0.229282
-0.141385
-0.0477814
0.050637
0.149643
0.242004
0.324095
0.393437
0.44867
0.489541
0.516692
0.531364
0.535147
0.529771
0.516964
0.498361
0.475447
0.449526
0.421696
0.392846
0.36365
0.334594
0.305998
0.278054
0.250856
0.224438
0.198785
0.173852
0.149568
0.125836
0.102539
0.0795455
0.0567077
0.0338708
0.010872
-0.0124586
-0.036299
-0.0608365
-0.086267
-0.112791
-0.14061
-0.169911
-0.200862
-0.233591
-0.26818
-0.304646
-0.342936
-0.382906
-0.424304
-0.466737
-0.509633
-0.552198
-0.593379
-0.631833
-0.665923
-0.693732
-0.713106
-0.721715
-0.717168
-0.697162
-0.659713
-0.603435
-0.527852
-0.43369
-0.323048
-0.199399
-0.0674198
0.0662637
0.195646
0.315866
0.422017
0.510846
0.580724
0.63155
0.664415
0.681162
0.684019
0.67533
0.65738
0.632293
0.601981
0.568108
0.53207
0.494978
0.457668
0.420718
0.384493
0.349197
0.314919
0.281674
0.249432
0.218128
0.187667
0.157925
0.128751
0.0999712
0.0713993
0.0428373
0.01408
-0.0150858
-0.0448835
-0.07555
-0.107335
-0.1405
-0.175307
-0.212008
-0.250826
-0.291938
-0.33546
-0.381431
-0.429801
-0.480413
-0.532985
-0.587062
-0.641973
-0.69676
-0.750123
-0.800379
-0.845449
-0.882873
-0.909856
-0.923344
-0.920142
-0.897107
-0.851428
-0.781025
-0.685006
-0.5641
-0.420956
-0.260159
-0.0880195
0.0830577
0.244955
0.394637
0.525714
0.634118
0.718059
0.777785
0.815054
0.832495
0.833112
0.819936
0.795839
0.763446
0.725095
0.682811
0.638278
0.592823
0.547416
0.502703
0.459064
0.416684
0.375622
0.335865
0.297357
0.260013
0.223715
0.188309
0.15361
0.119403
0.0854593
0.0515379
0.0173938
-0.0172261
-0.0525874
-0.0889735
-0.126689
-0.166056
-0.207404
-0.251055
-0.297296
-0.346362
-0.398409
-0.453502
-0.511604
-0.572562
-0.636083
-0.701689
-0.768646
-0.835875
-0.901863
-0.96461
-1.0216
-1.06984
-1.10587
-1.12587
-1.12577
-1.10146
-1.04911
-0.965712
-0.849719
-0.701702
-0.524809
-0.324843
-0.109989
0.101382
0.298588
0.47981
0.636908
0.764979
0.862238
0.929556
0.969649
0.986168
0.98304
0.964055
0.932692
0.892076
0.844966
0.793746
0.740387
0.686419
0.632926
0.580587
0.529757
0.48057
0.433025
0.387066
0.342608
0.299547
0.257745
0.21702
0.177147
0.137869
0.0989107
0.0599905
0.0208251
-0.0188738
-0.059409
-0.101108
-0.144328
-0.189455
-0.236893
-0.28704
-0.340262
-0.396855
-0.457024
-0.520864
-0.588358
-0.659366
-0.733615
-0.810639
-0.88969
-0.969618
-1.04874
-1.12476
-1.19475
-1.25515
-1.30185
-1.33023
-1.33528
-1.31177
-1.25463
-1.15961
-1.02421
-0.848598
-0.636342
-0.394592
-0.133728
0.121627
0.35763
0.572933
0.757324
0.905064
1.01464
1.08792
1.12895
1.14269
1.13414
1.10792
1.0681
1.01829
0.961648
0.900928
0.838388
0.775753
0.714196
0.65439
0.596618
0.540917
0.487199
0.435347
0.385247
0.336782
0.289801
0.244094
0.199395
0.155396
0.111775
0.0682076
0.0243762
-0.0200373
-0.0653662
-0.111976
-0.160277
-0.210722
-0.263795
-0.319984
-0.37974
-0.443437
-0.511331
-0.58355
-0.660095
-0.740853
-0.825589
-0.913896
-1.00507
-1.09796
-1.19076
-1.2809
-1.36503
-1.43906
-1.49819
-1.53701
-1.54951
-1.52921
-1.46954
-1.36463
-1.21057
-1.00683
-0.757282
-0.470561
-0.159641
0.144227
0.423274
0.675666
0.88873
1.05595
1.17647
1.25368
1.29342
1.30228
1.28653
1.25158
1.20208
1.14206
1.0751
1.00429
0.932211
0.860767
0.791199
0.724124
0.659695
0.597799
0.538227
0.480787
0.42534
0.371772
0.319927
0.26957
0.220387
0.172014
0.124073
0.0761985
0.0280415
-0.020737
-0.0704925
-0.121623
-0.174586
-0.229906
-0.288157
-0.349927
-0.415773
-0.486153
-0.561383
-0.641618
-0.726873
-0.817063
-0.912013
-1.01142
-1.11472
-1.2208
-1.32781
-1.43293
-1.53241
-1.62159
-1.695
-1.74646
-1.76895
-1.75464
-1.69513
-1.58247
-1.41082
-1.17846
-0.889393
-0.553938
-0.188147
0.169677
0.496858
0.789823
1.03298
1.21919
1.34881
1.42741
1.46325
1.46493
1.44008
1.39492
1.33453
1.26331
1.18521
1.10373
1.02174
0.941367
0.863887
0.789797
0.719045
0.651308
0.586213
0.523481
0.462964
0.404575
0.348171
0.293491
0.240163
0.187755
0.135828
0.0839707
0.0318104
-0.0210028
-0.0748348
-0.130106
-0.187321
-0.247076
-0.310043
-0.376932
-0.448419
-0.525068
-0.607255
-0.695154
-0.788779
-0.888062
-0.992906
-1.10317
-1.21849
-1.33795
-1.45969
-1.58068
-1.69672
-1.80258
-1.89217
-1.95854
-1.99376
-1.98856
-1.93242
-1.8147
-1.62691
-1.36556
-1.03451
-0.645967
-0.219683
0.198548
0.579911
0.917424
1.19203
1.39627
1.53252
1.60943
1.63836
1.63035
1.5945
1.53769
1.46526
1.38187
1.29184
1.19907
1.10682
1.01744
0.932206
0.851422
0.774741
0.701554
0.631277
0.563535
0.4982
0.43525
0.374578
0.315898
0.258762
0.202656
0.147065
0.0915319
0.0356687
-0.0208718
-0.0784509
-0.137501
-0.198565
-0.262317
-0.329537
-0.401073
-0.477753
-0.560262
-0.649042
-0.744269
-0.845928
-0.953947
-1.06831
-1.18909
-1.31627
-1.44921
-1.58615
-1.72386
-1.85767
-1.98176
-2.08938
-2.17294
-2.22376
-2.23117
-2.18219
-2.06276
-1.86082
-1.57031
-1.19458
-0.74796
-0.254709
0.231503
0.674197
1.06074
1.36798
1.58866
1.72832
1.79978
1.81837
1.79802
1.74933
1.67957
1.59405
1.49756
1.39479
1.29013
1.18727
1.08885
0.996095
0.909024
0.826877
0.748672
0.673562
0.601071
0.531133
0.463853
0.399194
0.336835
0.27623
0.216755
0.157812
0.0988911
0.0395999
-0.0203868
-0.0814074
-0.143891
-0.208414
-0.275727
-0.346732
-0.422439
-0.503856
-0.591824
-0.686855
-0.789098
-0.89847
-1.01485
-1.1383
-1.26915
-1.40787
-1.55432
-1.7069
-1.86217
-2.01495
-2.15876
-2.28617
-2.38913
-2.45848
-2.48232
-2.44493
-2.32794
-2.11452
-1.79498
-1.37164
-0.861299
-0.293704
0.269321
0.781765
1.22232
1.56305
1.79777
1.93671
1.99824
2.00263
1.96719
1.90398
1.82019
1.72068
1.61021
1.49391
1.37671
1.26291
1.15544
1.05549
0.962642
0.875571
0.792826
0.713239
0.636223
0.561846
0.490433
0.422059
0.356347
0.292613
0.230098
0.168102
0.10606
0.0435869
-0.019595
-0.0837782
-0.149371
-0.216974
-0.287417
-0.361736
-0.441122
-0.526814
-0.619849
-0.720816
-0.8298
-0.946587
-1.07096
-1.20298
-1.34333
-1.49314
-1.65299
-1.8216
-1.99527
-2.16821
-2.33317
-2.482
-2.60635
-2.69708
-2.74151
-2.72088
-2.61142
-2.39
-2.04198
-1.5679
-0.987422
-0.337154
0.312907
0.904995
1.4051
1.77962
2.02488
2.15794
2.20426
2.19016
2.1369
2.05776
1.95918
1.84494
1.71965
1.589
1.45862
1.3335
1.21706
1.11035
1.01234
0.920965
0.834206
0.750502
0.669138
0.59042
0.515031
0.443206
0.374478
0.307962
0.242736
0.177976
0.113053
0.0476124
-0.0185465
-0.0856428
-0.154043
-0.224361
-0.297509
-0.374663
-0.457222
-0.546713
-0.644433
-0.751055
-0.866551
-0.990497
-1.12249
-1.26254
-1.41164
-1.57191
-1.74494
-1.92992
-2.12283
-2.3171
-2.50459
-2.67627
-2.82365
-2.93842
-3.00785
-3.00996
-2.91422
-2.68931
-2.3139
-1.7857
-1.1278
-0.385532
0.363314
1.04666
1.61239
2.02019
2.27114
2.39197
2.41696
2.37969
2.30594
2.20991
2.09622
1.96669
1.82576
1.67994
1.53566
1.39883
1.27352
1.16061
1.0582
0.963234
0.873038
0.785578
0.699972
0.616925
0.537669
0.462662
0.391275
0.322334
0.254724
0.187479
0.119891
0.0516594
-0.0172935
-0.0870847
-0.158014
-0.230697
-0.306133
-0.38564
-0.470842
-0.563635
-0.665665
-0.777709
-0.899544
-1.03044
-1.16974
-1.31719
-1.47414
-1.64399
-1.82984
-2.03152
-2.24453
-2.4613
-2.67267
-2.86841
-3.03996
-3.18102
-3.28004
-3.31179
-3.23727
-3.01451
-2.6135
-2.02755
-1.2839
-0.439268
0.421743
1.20999
1.84798
2.28737
2.53748
2.63848
2.63516
2.56962
2.47293
2.35964
2.23109
2.08588
1.92846
1.7666
1.60762
1.45864
1.32463
1.20626
1.10035
1.00258
0.909573
0.818727
0.728896
0.641412
0.558348
0.480444
0.406788
0.335789
0.266124
0.196667
0.126597
0.0557115
-0.0158894
-0.0881905
-0.161398
-0.236108
-0.313425
-0.394801
-0.482087
-0.577653
-0.683624
-0.80091
-0.928984
-1.0667
-1.21303
-1.36726
-1.5309
-1.70918
-1.90734
-2.12606
-2.36008
-2.60054
-2.83717
-3.05795
-3.25409
-3.42303
-3.5563
-3.62562
-3.58131
-3.36771
-2.94379
-2.29614
-1.45708
-0.498693
0.489544
1.39871
2.11625
2.58385
2.82448
2.89682
2.85736
2.75806
2.63628
2.5062
2.36372
2.20256
2.02769
1.84891
1.67434
1.51266
1.37019
1.24726
1.13895
1.03921
0.94409
0.850251
0.756087
0.663911
0.577041
0.496561
0.421076
0.348392
0.277003
0.205604
0.133202
0.059752
-0.014388
-0.0890482
-0.164309
-0.240724
-0.319528
-0.402296
-0.491066
-0.588828
-0.698375
-0.820792
-0.955085
-1.09953
-1.25277
-1.41314
-1.58206
-1.76728
-1.97706
-2.21322
-2.46925
-2.7346
-2.99798
-3.24461
-3.46482
-3.66224
-3.8344
-3.95038
-3.94699
-3.75102
-3.30807
-2.59442
-1.64853
-0.563967
0.568175
1.61711
2.42224
2.91227
3.13228
3.16601
3.08173
2.94277
2.79419
2.64887
2.49431
2.31691
2.12343
1.92684
1.73565
1.56057
1.40994
1.28363
1.17421
1.07339
0.976887
0.880501
0.781735
0.684412
0.593685
0.511016
0.434212
0.360212
0.287429
0.214366
0.139739
0.0637626
-0.0128427
-0.0897461
-0.166865
-0.244668
-0.324587
-0.408287
-0.497888
-0.597202
-0.709958
-0.837482
-0.978066
-1.12923
-1.28939
-1.45537
-1.62782
-1.81802
-2.03858
-2.2927
-2.57187
-2.86325
-3.15513
-3.42839
-3.67092
-3.89607
-4.11152
-4.28462
-4.33483
-4.16647
-3.71001
-2.92562
-1.85904
-0.634973
0.659129
1.87009
2.77186
3.27518
3.46039
3.44481
3.30626
3.1212
2.94467
2.78703
2.62338
2.42923
2.21559
2.00044
1.79142
1.60201
1.44361
1.31539
1.20643
1.10532
1.00827
0.909898
0.806037
0.702858
0.608173
0.523806
0.446292
0.371316
0.29747
0.223044
0.146247
0.0677214
-0.0113046
-0.090371
-0.169186
-0.248061
-0.328748
-0.412959
-0.502668
-0.602796
-0.718384
-0.851106
-0.998158
-1.15604
-1.3234
-1.49463
-1.6684
-1.86111
-2.09138
-2.36423
-2.66785
-2.98624
-3.30885
-3.60976
-3.87122
-4.12149
-4.38425
-4.62654
-4.74529
-4.61592
-4.15373
-3.29339
-2.08886
-0.711172
0.763793
2.16317
3.17211
3.67485
3.80743
3.73178
3.52872
3.29048
3.0855
2.92019
2.75191
2.53991
2.30403
2.06986
1.84155
1.63656
1.47085
1.34264
1.23597
1.13524
1.03854
0.938953
0.829198
0.719123
0.620351
0.53493
0.457447
0.381769
0.307186
0.231749
0.15277
0.0715992
-0.00982132
-0.0910071
-0.171395
-0.251008
-0.33215
-0.416526
-0.505529
-0.605604
-0.723627
-0.861787
-1.01561
-1.18013
-1.35532
-1.53178
-1.70411
-1.89615
-2.13488
-2.4276
-2.75724
-3.10322
-3.4595
-3.78978
-4.06468
-4.33506
-4.64852
-4.974
-5.1789
-5.10082
-4.64393
-3.70203
-2.33728
-0.791419
0.883199
2.50251
3.63146
4.11303
4.17086
4.0255
3.74685
3.4474
3.21422
3.04805
2.88149
2.64942
2.38841
2.13541
1.88602
1.6637
1.49128
1.36547
1.26337
1.16327
1.06797
0.968309
0.851429
0.732999
0.630003
0.544392
0.467865
0.391619
0.316625
0.240625
0.159351
0.0753542
-0.00843287
-0.0917329
-0.173625
-0.2536
-0.334921
-0.419247
-0.506603
-0.605591
-0.725614
-0.869654
-1.0307
-1.20159
-1.38567
-1.56798
-1.73533
-1.92264
-2.16836
-2.48267
-2.84031
-3.21357
-3.60756
-3.97037
-4.25043
-4.53284
-4.89948
-5.32457
-5.63641
-5.62186
-5.18608
-4.15677
-2.60223
-0.873742
1.01765
2.89487
4.16027
4.59067
4.54657
4.32483
3.95837
3.58834
3.32811
3.17041
3.01451
2.7582
2.46803
2.19765
1.92484
1.6828
1.5044
1.38407
1.28933
1.18944
1.09675
0.998797
0.872933
0.744162
0.636853
0.552209
0.477809
0.400884
0.325808
0.249856
0.166033
0.0789245
-0.00716733
-0.0926187
-0.176022
-0.255894
-0.33716
-0.421439
-0.506031
-0.602684
-0.72421
-0.874846
-1.0438
-1.22032
-1.41498
-1.60469
-1.76245
-1.93994
-2.19093
-2.52938
-2.91764
-3.31629
-3.75352
-4.15457
-4.42778
-4.7104
-5.13144
-5.67555
-6.1191
-6.17842
-5.78665
-4.66428
-2.87967
-0.955083
1.16613
3.34748
4.7716
5.10743
4.9284
4.62939
4.16115
3.70929
3.4241
3.28726
3.15446
2.86655
2.54173
2.25751
1.95812
1.69306
1.50965
1.39866
1.31485
1.2136
1.12497
1.03151
0.893894
0.75215
0.640561
0.558411
0.487657
0.409527
0.334717
0.259693
0.17285
0.0822185
-0.00603325
-0.0937219
-0.178761
-0.257915
-0.338924
-0.423503
-0.50397
-0.596772
-0.719203
-0.877515
-1.05539
-1.23596
-1.44367
-1.64387
-1.78593
-1.94722
-2.2015
-2.56779
-2.99032
-3.40969
-3.89772
-4.34693
-4.59626
-4.86275
-5.33777
-6.02396
-6.62932
-6.76776
-6.45338
-5.23336
-3.16271
-1.03104
1.32549
3.8679
5.48209
5.66114
5.30749
4.94023
4.35323
3.80574
3.49879
3.39858
3.30629
2.97447
2.60756
2.31656
1.98602
1.69347
1.50632
1.40951
1.34131
1.23527
1.15255
1.06794
0.914445
0.756329
0.640726
0.563047
0.497948
0.417426
0.343278
0.270479
0.179817
0.0851012
-0.00500923
-0.0950803
-0.182061
-0.259636
-0.340204
-0.42596
-0.500581
-0.587705
-0.710279
-0.877822
-1.06618
-1.2478
-1.472
-1.6881
-1.80619
-1.94347
-2.19869
-2.59807
-3.06024
-3.49112
-4.04017
-4.55405
-4.75544
-4.98438
-5.51071
-6.36654
-7.17128
-7.38375
-7.19573
-5.87594
-3.44045
-1.09562
1.4893
4.46375
6.31332
6.24699
5.67152
5.26074
4.53278
3.87259
3.54841
3.50424
3.47685
3.08144
2.66252
2.37725
2.00872
1.68275
1.49362
1.41689
1.37064
1.25356
1.17916
1.11008
0.934614
0.755855
0.636893
0.566169
0.509439
0.424321
0.351338
0.282695
0.18692
0.0873786
-0.00402975
-0.0967033
-0.186211
-0.260967
-0.340884
-0.429493
-0.496027
-0.575296
-0.697005
-0.875931
-1.07724
-1.25464
-1.49997
-1.74078
-1.82356
-1.92744
-2.18079
-2.62042
-3.13046
-3.55654
-4.18016
-4.78521
-4.9048
-5.06932
-5.64132
-6.69962
-7.75221
-8.01522
-8.02532
-6.60842
-3.6965
-1.14115
1.64629
5.14236
7.2935
6.85649
6.00378
5.59794
4.69798
3.90407
3.56882
3.6037
3.67558
3.18605
2.70221
2.44337
2.02635
1.65931
1.47064
1.42103
1.40557
1.26696
1.20412
1.1607
0.954246
0.749642
0.628584
0.567822
0.52319
0.429756
0.35864
0.297014
0.194086
0.0887772
-0.00296667
-0.0985589
-0.191605
-0.261744
-0.340698
-0.435013
-0.490449
-0.559338
-0.678792
-0.871975
-1.09014
-1.25464
-1.52718
-1.80647
-1.83817
-1.8977
-2.1457
-2.63502
-3.20576
-3.60005
-4.31587
-5.05325
-5.04334
-5.11119
-5.71925
-7.01874
-8.38415
-8.64359
-8.95665
-7.45345
-3.90692
-1.15831
1.77838
5.91023
8.4597
7.47613
6.28208
5.96411
4.84663
3.89367
3.55566
3.69559
3.91531
3.28563
2.72031
2.52062
2.03882
1.62115
1.43639
1.42199
1.44989
1.2731
1.2263
1.22355
0.972881
0.736335
0.615324
0.567993
0.540672
0.432995
0.364797
0.31437
0.20116
0.0889217
-0.00160607
-0.100556
-0.198789
-0.26171
-0.339165
-0.443736
-0.483933
-0.539616
-0.654868
-0.865997
-1.10725
-1.24511
-1.55263
-1.89121
-1.84971
-1.85262
-2.09084
-2.64182
-3.29341
-3.61327
-4.44379
-5.3757
-5.169
-5.10352
-5.73269
-7.31814
-9.08629
-9.23981
-10.0079
-8.44222
-4.03763
-1.13653
1.85817
6.7725
9.8606
8.08573
6.47743
6.37894
4.97553
3.83404
3.50447
3.77706
4.21328
3.37569
2.70809
2.61734
2.0456
1.56585
1.38989
1.41953
1.50885
1.26849
1.24398
1.30372
0.989585
0.714287
0.596704
0.566556
0.563902
0.432915
0.369261
0.336056
0.207854
0.0873102
0.000379215
-0.102522
-0.208513
-0.260503
-0.335511
-0.457287
-0.476456
-0.515947
-0.624249
-0.857858
-1.13198
-1.22229
-1.57447
-2.003
-1.85717
-1.79051
-2.01312
-2.64023
-3.40409
-3.58466
-4.55796
-5.77615
-5.27779
-5.04007
-5.66828
-7.58974
-9.88832
-9.76034
-11.2019
-9.61732
-4.04113
-1.06494
1.84591
7.7321
11.5598
8.6564
6.55268
6.87214
5.07946
3.71702
3.41103
3.8429
4.59244
3.44928
2.65379
2.74543
2.04531
1.49054
1.33025
1.41278
1.58963
1.24815
1.25468
1.40805
1.00271
0.681557
0.572447
0.563164
0.595619
0.427872
0.371289
0.363827
0.213699
0.0832885
0.0034611
-0.104171
-0.221805
-0.25765
-0.328562
-0.477837
-0.467811
-0.488234
-0.585714
-0.847092
-1.16924
-1.18114
-1.58974
-2.15238
-1.85849
-1.70976
-1.90891
-2.62861
-3.55309
-3.49874
-4.64908
-6.28604
-5.3626
-4.9154
-5.51112
-7.82163
-10.8347
-10.1421
-12.5674
-11.0362
-3.85228
-0.933919
1.68583
8.78894
13.6398
9.1481
6.46086
7.4866
5.1498
3.53373
3.27182
3.88442
5.08301
3.49618
2.54192
2.92147
2.03523
1.39186
1.25682
1.39998
1.70194
1.2052
1.255
1.54561
1.00959
0.635935
0.542513
0.557112
0.639497
0.415546
0.369918
0.400039
0.217963
0.0760266
0.00829024
-0.10507
-0.240044
-0.252552
-0.316622
-0.508264
-0.45749
-0.456528
-0.53779
-0.832699
-1.22585
-1.11497
-1.59395
-2.35317
-1.84995
-1.60903
-1.77409
-2.60369
-3.76178
-3.33516
-4.70334
-6.94679
-5.41155
-4.72572
-5.24494
-7.99592
-11.9903
-10.2965
-14.1408
-12.7752
-3.38334
-0.737611
1.30211
9.93884
16.2064
9.50678
6.14355
8.28211
5.17254
3.27475
3.08465
3.88794
5.72438
3.50197
2.35251
3.1681
2.01061
1.2661
1.16942
1.37793
1.85875
1.13035
1.24044
1.72829
1.00615
0.574996
0.50722
0.547146
0.700409
0.392746
0.363932
0.447797
0.219568
0.0644985
0.0157308
-0.104593
-0.265057
-0.244491
-0.297321
-0.552351
-0.444547
-0.421131
-0.478762
-0.812873
-1.31116
-1.01525
-1.58066
-2.62324
-1.82559
-1.48762
-1.6041
-2.55958
-4.05935
-3.06781
-4.70116
-7.8123
-5.40589
-4.46986
-4.85245
-8.08577
-13.4471
-10.1018
-15.9676
-14.9344
-2.51786
-0.477522
0.594186
11.1725
19.3939
9.66121
5.52912
9.33957
5.12583
2.93059
2.84954
3.83293
6.5672
3.44688
2.06032
3.51551
1.96374
1.10922
1.0686
1.34148
2.07708
1.0114
1.20518
1.97142
0.98643
0.496191
0.467392
0.531221
0.784729
0.355191
0.351849
0.511122
0.216974
0.0474691
0.0268938
-0.101866
-0.29921
-0.232634
-0.267435
-0.615028
-0.427405
-0.382705
-0.40669
-0.784642
-1.43766
-0.871217
-1.541
-2.98557
-1.77634
-1.34585
-1.39413
-2.48665
-4.48478
-2.66379
-4.61557
-8.95193
-5.3174
-4.15067
-4.31601
-8.05144
-15.3324
-9.39493
-18.1045
-17.6427
-1.10363
-0.167452
)
;

boundaryField
{
    left
    {
        type            calculated;
        value           uniform 0;
    }
    right
    {
        type            calculated;
        value           uniform 0;
    }
    interface
    {
        type            calculated;
        value           nonuniform List<scalar> 
64
(
0.594186
11.1725
19.3939
9.66121
5.52912
9.33957
5.12583
2.93059
2.84954
3.83293
6.5672
3.44688
2.06032
3.51551
1.96374
1.10922
1.0686
1.34148
2.07708
1.0114
1.20518
1.97142
0.98643
0.496191
0.467392
0.531221
0.784729
0.355191
0.351849
0.511122
0.216974
0.0474691
0.0268938
-0.101866
-0.29921
-0.232634
-0.267435
-0.615028
-0.427405
-0.382705
-0.40669
-0.784642
-1.43766
-0.871217
-1.541
-2.98557
-1.77634
-1.34585
-1.39413
-2.48665
-4.48478
-2.66379
-4.61557
-8.95193
-5.3174
-4.15067
-4.31601
-8.05144
-15.3324
-9.39493
-18.1045
-17.6427
-1.10363
-0.167452
)
;
    }
    bottom
    {
        type            calculated;
        value           nonuniform List<scalar> 
64
(
0.00717993
0.0212479
0.0344491
0.0463022
0.0564627
0.0647122
0.0709772
0.0753074
0.0778404
0.0787724
0.0783313
0.0767546
0.0742742
0.0711048
0.0674377
0.0634365
0.0592359
0.0549415
0.0506319
0.0463622
0.0421682
0.0380706
0.0340788
0.0301938
0.0264108
0.0227201
0.019108
0.0155579
0.0120505
0.00856421
0.00507611
0.00156172
-0.00200462
-0.00564977
-0.00940167
-0.013289
-0.0173408
-0.021585
-0.0260478
-0.0307514
-0.0357124
-0.0409399
-0.0464335
-0.0521811
-0.0581556
-0.0643122
-0.0705836
-0.0768752
-0.0830599
-0.0889736
-0.0944132
-0.0991357
-0.102862
-0.105284
-0.106077
-0.104915
-0.101501
-0.0955909
-0.0870355
-0.0758133
-0.062062
-0.0460945
-0.0283948
-0.00959128
)
;
    }
    defaultFaces
    {
        type            empty;
    }
}


// ************************************************************************* //
