/*--------------------------------*- C++ -*----------------------------------*\
| =========                 |                                                 |
| \\      /  F ield         | OpenFOAM: The Open Source CFD Toolbox           |
|  \\    /   O peration     | Version:  5.x                                   |
|   \\  /    A nd           | Web:      www.OpenFOAM.org                      |
|    \\/     M anipulation  |                                                 |
\*---------------------------------------------------------------------------*/
FoamFile
{
    version     2.0;
    format      ascii;
    class       volScalarField;
    location    "0.8";
    object      T;
}
// * * * * * * * * * * * * * * * * * * * * * * * * * * * * * * * * * * * * * //

dimensions      [0 0 0 1 0 0 0];

internalField   nonuniform List<scalar> 
2048
(
9.82132
9.82155
9.82199
9.82262
9.82343
9.82439
9.82545
9.82661
9.82781
9.82904
9.83027
9.83149
9.83267
9.83381
9.83489
9.83591
9.83687
9.83777
9.83859
9.83935
9.84004
9.84067
9.84123
9.84173
9.84217
9.84256
9.84288
9.84315
9.84337
9.84353
9.84364
9.84369
9.84368
9.84363
9.84351
9.84333
9.84309
9.84279
9.84242
9.84198
9.84146
9.84086
9.84018
9.83941
9.83855
9.83759
9.83654
9.83539
9.83414
9.83279
9.83135
9.82984
9.82826
9.82662
9.82497
9.82331
9.82169
9.82014
9.8187
9.81742
9.81633
9.81548
9.81489
9.81459
9.4716
9.47227
9.47358
9.47549
9.47791
9.48075
9.48394
9.48736
9.49094
9.49459
9.49825
9.50186
9.50537
9.50874
9.51195
9.51498
9.51782
9.52045
9.52289
9.52513
9.52717
9.52902
9.53069
9.53217
9.53347
9.53461
9.53557
9.53637
9.53701
9.53748
9.5378
9.53795
9.53795
9.53777
9.53743
9.53691
9.5362
9.53531
9.53421
9.53291
9.53138
9.52962
9.5276
9.52533
9.52279
9.51996
9.51685
9.51344
9.50975
9.50576
9.50151
9.49702
9.49233
9.48749
9.48256
9.47764
9.47281
9.46819
9.46391
9.46008
9.45684
9.45429
9.45254
9.45164
9.13668
9.1378
9.13999
9.14316
9.14718
9.15191
9.15719
9.16285
9.16876
9.17479
9.18081
9.18674
9.1925
9.19803
9.20329
9.20824
9.21288
9.21719
9.22117
9.22483
9.22816
9.23118
9.23389
9.2363
9.23843
9.24028
9.24185
9.24315
9.24419
9.24497
9.24548
9.24574
9.24573
9.24544
9.24489
9.24404
9.2429
9.24145
9.23967
9.23755
9.23506
9.23219
9.22892
9.22522
9.22108
9.21647
9.21139
9.20582
9.19978
9.19326
9.1863
9.17893
9.17123
9.16326
9.15515
9.14702
9.13905
9.13141
9.1243
9.11795
9.11256
9.10832
9.1054
9.1039
8.81565
8.81724
8.82033
8.8248
8.83046
8.83709
8.84448
8.85239
8.86063
8.869
8.87735
8.88555
8.8935
8.90113
8.90836
8.91517
8.92154
8.92745
8.9329
8.93791
8.94247
8.9466
8.95031
8.95361
8.95652
8.95904
8.96119
8.96298
8.9644
8.96546
8.96617
8.96652
8.96651
8.96613
8.96537
8.96423
8.96268
8.9607
8.95828
8.95539
8.95201
8.94809
8.94363
8.93857
8.93291
8.92661
8.91965
8.91202
8.90372
8.89477
8.88518
8.87502
8.86437
8.85334
8.84209
8.83079
8.81968
8.809
8.79906
8.79015
8.78256
8.77659
8.77247
8.77036
8.5077
8.50977
8.51381
8.51964
8.527
8.5356
8.54515
8.55534
8.56591
8.57662
8.58728
8.59773
8.60783
8.61749
8.62664
8.63524
8.64327
8.65071
8.65757
8.66386
8.66958
8.67477
8.67943
8.68357
8.68722
8.69039
8.69308
8.69532
8.69711
8.69845
8.69934
8.69979
8.69978
8.69931
8.69838
8.69695
8.69502
8.69256
8.68954
8.68594
8.68171
8.67681
8.67122
8.66489
8.65779
8.64988
8.64114
8.63154
8.62107
8.60976
8.59763
8.58475
8.57121
8.55716
8.54278
8.52831
8.51402
8.50027
8.48742
8.47586
8.46601
8.45824
8.45286
8.45011
8.21204
8.21464
8.21969
8.22697
8.23612
8.24678
8.25856
8.27109
8.28403
8.29711
8.31007
8.32273
8.33494
8.34659
8.3576
8.36792
8.37754
8.38645
8.39465
8.40216
8.409
8.41518
8.42073
8.42568
8.43003
8.4338
8.43702
8.43969
8.44182
8.44342
8.44449
8.44503
8.44503
8.44449
8.44339
8.44171
8.43943
8.43652
8.43295
8.42867
8.42366
8.41785
8.41121
8.40368
8.39522
8.38579
8.37534
8.36386
8.35132
8.33774
8.32314
8.30759
8.29121
8.27416
8.25666
8.23898
8.22147
8.20456
8.18869
8.17438
8.16214
8.15245
8.14574
8.1423
7.92798
7.93114
7.93731
7.94614
7.95721
7.97004
7.98415
7.99909
8.01446
8.02991
8.04518
8.06004
8.07432
8.08791
8.10073
8.11272
8.12387
8.13417
8.14364
8.15231
8.1602
8.16733
8.17373
8.17943
8.18444
8.18879
8.19249
8.19557
8.19803
8.19988
8.20112
8.20175
8.20177
8.20116
8.19991
8.198
8.1954
8.19208
8.188
8.18311
8.17737
8.17071
8.16309
8.15443
8.1447
8.13383
8.12177
8.1085
8.09397
8.0782
8.0612
8.04305
8.02386
8.00382
7.98318
7.96225
7.94145
7.92126
7.90224
7.88502
7.87024
7.8585
7.85035
7.84617
7.65484
7.65864
7.66601
7.67654
7.68968
7.70483
7.72139
7.73882
7.75667
7.77453
7.79211
7.80916
7.82549
7.84098
7.85554
7.86913
7.88174
7.89337
7.90406
7.91382
7.9227
7.93073
7.93793
7.94433
7.94997
7.95486
7.95902
7.96248
7.96525
7.96734
7.96875
7.96947
7.96951
7.96885
7.96747
7.96535
7.96246
7.95876
7.95421
7.94876
7.94235
7.9349
7.92637
7.91667
7.90574
7.89352
7.87994
7.86496
7.84853
7.83065
7.81132
7.79062
7.76866
7.74565
7.72184
7.69762
7.67342
7.64983
7.6275
7.60718
7.58967
7.57572
7.566
7.56102
7.392
7.39651
7.40523
7.41763
7.433
7.45062
7.46977
7.4898
7.51019
7.5305
7.55039
7.56961
7.58796
7.6053
7.62155
7.63668
7.65069
7.66358
7.67541
7.68621
7.69603
7.70489
7.71285
7.71992
7.72614
7.73154
7.73614
7.73996
7.74302
7.74533
7.7469
7.74772
7.74778
7.74707
7.74557
7.74327
7.74012
7.73608
7.73111
7.72515
7.71812
7.70996
7.70058
7.6899
7.67786
7.66437
7.64936
7.63276
7.61453
7.59461
7.57303
7.54984
7.52514
7.49916
7.47218
7.44458
7.4169
7.38975
7.36392
7.3403
7.31984
7.30347
7.29204
7.28616
7.13888
7.14418
7.15441
7.16886
7.18669
7.20696
7.22884
7.25157
7.27456
7.29735
7.31957
7.34094
7.36127
7.38042
7.39831
7.41491
7.43024
7.44433
7.45723
7.46901
7.4797
7.48936
7.49802
7.50572
7.51249
7.51836
7.52337
7.52754
7.53088
7.5334
7.53512
7.53603
7.53611
7.53537
7.53378
7.5313
7.52792
7.52358
7.51823
7.5118
7.50422
7.4954
7.48524
7.47367
7.46059
7.44592
7.42957
7.41145
7.39149
7.36964
7.34587
7.32024
7.29285
7.26391
7.23372
7.2027
7.17141
7.14056
7.11103
7.08385
7.06019
7.04118
7.02786
7.02099
6.8949
6.90111
6.91302
6.92977
6.95027
6.97341
6.99816
7.0237
7.04936
7.07465
7.09919
7.1227
7.14498
7.16589
7.18535
7.20336
7.21994
7.23515
7.24907
7.26176
7.27328
7.28368
7.29301
7.30129
7.30858
7.3149
7.32028
7.32477
7.32837
7.3311
7.33296
7.33396
7.33408
7.33331
7.33163
7.32901
7.32542
7.32081
7.31512
7.30828
7.30019
7.29077
7.27991
7.26751
7.25348
7.2377
7.22009
7.20054
7.17896
7.15526
7.12939
7.10139
7.07134
7.03946
7.00605
6.97155
6.93655
6.90183
6.86836
6.83737
6.81021
6.78829
6.77288
6.76492
6.65953
6.66677
6.6806
6.69991
6.72335
6.74956
6.77736
6.8058
6.83418
6.86199
6.88885
6.91448
6.93866
6.96128
6.98225
7.00159
7.01935
7.03562
7.05048
7.06403
7.07632
7.08742
7.09737
7.10621
7.11397
7.1207
7.12644
7.13123
7.13507
7.138
7.14001
7.14109
7.14124
7.14045
7.1387
7.13596
7.13219
7.12734
7.12135
7.11414
7.10561
7.09564
7.08414
7.07099
7.05606
7.03927
7.02049
6.99961
6.9765
6.95104
6.92316
6.89285
6.86019
6.82538
6.78875
6.75072
6.71192
6.67315
6.63551
6.6004
6.56944
6.54431
6.52657
6.51739
6.43225
6.44067
6.45668
6.47887
6.50553
6.53505
6.56605
6.59749
6.62863
6.65897
6.68813
6.71585
6.7419
6.76617
6.78859
6.80919
6.82805
6.8453
6.86104
6.87538
6.8884
6.90016
6.91069
6.92004
6.92825
6.93536
6.94144
6.9465
6.95058
6.95369
6.95583
6.957
6.9572
6.95639
6.95458
6.95172
6.9478
6.94274
6.93649
6.92896
6.92003
6.90959
6.8975
6.88366
6.86792
6.85019
6.83033
6.80821
6.78367
6.75655
6.72674
6.6942
6.65899
6.62129
6.58143
6.53984
6.49714
6.45417
6.41211
6.37256
6.33743
6.30875
6.28843
6.27789
6.21257
6.22235
6.24085
6.26626
6.29646
6.32954
6.3639
6.39842
6.43234
6.4652
6.49665
6.52642
6.5543
6.58016
6.60396
6.62574
6.64563
6.66378
6.68033
6.69541
6.70911
6.72148
6.73256
6.74239
6.75101
6.75849
6.76486
6.77019
6.77449
6.77777
6.78005
6.78131
6.78154
6.78073
6.77886
6.77591
6.77185
6.76662
6.76014
6.75233
6.74306
6.73219
6.71959
6.70511
6.68863
6.67003
6.64918
6.62592
6.60006
6.57139
6.53975
6.50505
6.46734
6.42678
6.3837
6.33854
6.29188
6.24455
6.19782
6.15348
6.11378
6.08117
6.05797
6.04592
6
6.01135
6.03271
6.06174
6.09584
6.13271
6.17059
6.20824
6.24495
6.2803
6.31401
6.34581
6.37547
6.40287
6.42797
6.45086
6.47168
6.49065
6.50795
6.52372
6.53805
6.551
6.5626
6.57288
6.58188
6.58968
6.59634
6.60191
6.60641
6.60987
6.61227
6.61362
6.61389
6.61307
6.61117
6.60814
6.60396
6.59857
6.5919
6.58386
6.57429
6.56305
6.54999
6.53494
6.51779
6.49839
6.47662
6.45232
6.42525
6.39514
6.36176
6.325
6.28485
6.24148
6.19521
6.14648
6.0958
6.04398
5.99231
5.94281
5.89811
5.86114
5.83475
5.82102
5.79407
5.80725
5.83189
5.865
5.90337
5.9443
5.98582
6.02665
6.06612
6.10393
6.13986
6.17365
6.20504
6.23391
6.26025
6.28415
6.30583
6.32555
6.34353
6.35993
6.37486
6.38836
6.40044
6.41113
6.42049
6.42858
6.4355
6.44129
6.44599
6.44961
6.45214
6.45357
6.45388
6.45307
6.45112
6.44803
6.44375
6.43823
6.43141
6.42317
6.41336
6.4018
6.38833
6.37277
6.35499
6.33487
6.31227
6.28702
6.25886
6.22742
6.19242
6.15367
6.11115
6.06501
6.01559
5.96332
5.90862
5.85218
5.79532
5.74027
5.69008
5.64827
5.61832
5.60274
5.59433
5.60963
5.63804
5.67576
5.71879
5.76403
5.80931
5.85332
5.8955
5.93571
5.97382
6.00957
6.04265
6.07294
6.10043
6.12526
6.1477
6.16808
6.18668
6.20367
6.21915
6.23317
6.24572
6.2568
6.26647
6.27483
6.28199
6.28799
6.29288
6.29665
6.2993
6.30081
6.30117
6.30036
6.29839
6.29523
6.29086
6.28524
6.27829
6.2699
6.25989
6.24807
6.23424
6.21823
6.19988
6.17908
6.15572
6.12964
6.10049
6.06785
6.03133
5.99069
5.94587
5.897
5.84448
5.78873
5.73003
5.6689
5.60658
5.54556
5.48936
5.44218
5.40829
5.39066
5.40033
5.41809
5.45087
5.49378
5.54187
5.59167
5.64081
5.68797
5.73277
5.77529
5.81555
5.85324
5.88795
5.91959
5.94817
5.97383
5.99694
6.01789
6.03705
6.05459
6.07059
6.08511
6.09811
6.10954
6.1195
6.1281
6.13547
6.14167
6.14672
6.15065
6.15342
6.15501
6.15541
6.15461
6.15261
6.1494
6.14496
6.13926
6.1322
6.1237
6.11354
6.10151
6.08737
6.07095
6.05208
6.03065
6.0066
5.97978
5.94979
5.91608
5.87814
5.83571
5.78866
5.73711
5.68153
5.62239
5.55978
5.49391
5.42588
5.35844
5.29568
5.24251
5.20425
5.18441
5.21163
5.23223
5.27007
5.31885
5.37242
5.42699
5.48007
5.53031
5.57761
5.62233
5.6647
5.70431
5.74062
5.77355
5.80313
5.82953
5.85319
5.87464
5.8943
5.91234
5.92884
5.94385
5.95727
5.96904
5.97924
5.98804
5.99561
6.00199
6.00721
6.01129
6.01418
6.01586
6.0163
6.0155
6.01347
6.01022
6.00572
5.99994
5.99282
5.98423
5.97398
5.96179
5.94738
5.93059
5.91126
5.88924
5.86455
5.8371
5.80639
5.77174
5.73251
5.68837
5.63919
5.58497
5.52638
5.464
5.39759
5.32699
5.25301
5.1787
5.10876
5.04889
5.00584
4.98362
5.0278
5.05167
5.0954
5.1508
5.21024
5.26978
5.32686
5.38005
5.42969
5.47648
5.52094
5.56247
5.60031
5.63447
5.665
5.69202
5.71614
5.73799
5.7581
5.77661
5.79357
5.80907
5.82292
5.83498
5.84539
5.85436
5.86211
5.86866
5.87404
5.87826
5.88128
5.88303
5.88352
5.88273
5.88067
5.87737
5.87283
5.86699
5.85981
5.85119
5.84089
5.82858
5.81396
5.79684
5.77708
5.75449
5.72921
5.70123
5.66995
5.63452
5.59409
5.54836
5.49711
5.44025
5.37868
5.31322
5.24321
5.16796
5.08778
5.00612
4.92838
4.861
4.81269
4.78796
4.84843
4.87603
4.92663
4.98951
5.05516
5.11985
5.18096
5.23694
5.28869
5.33738
5.38394
5.42743
5.46674
5.50207
5.53347
5.56101
5.58546
5.60761
5.62813
5.64709
5.66448
5.68046
5.69474
5.70707
5.71765
5.72676
5.73466
5.74138
5.7469
5.75127
5.75442
5.75625
5.75677
5.75599
5.75391
5.75056
5.74598
5.7401
5.73288
5.72427
5.71396
5.70159
5.68678
5.66938
5.64923
5.62608
5.60023
5.57185
5.54015
5.50409
5.46256
5.41533
5.36214
5.30259
5.23807
5.16977
5.09642
5.01666
4.93002
4.84052
4.75434
4.67846
4.62444
4.59714
4.67311
4.70491
4.76357
4.83492
4.90703
4.977
5.04218
5.10069
5.15431
5.2047
5.25339
5.2989
5.33958
5.37603
5.40826
5.43618
5.46085
5.48319
5.5041
5.52348
5.54127
5.55776
5.57248
5.58504
5.59574
5.60494
5.61299
5.61987
5.62552
5.63005
5.63333
5.63524
5.6358
5.63501
5.6329
5.62951
5.62491
5.61898
5.61174
5.60316
5.5929
5.58053
5.56556
5.54791
5.52743
5.5037
5.47728
5.44862
5.41666
5.38015
5.33761
5.28898
5.23398
5.17168
5.10415
5.03331
4.95695
4.87295
4.77959
4.68173
4.58651
4.5009
4.44076
4.41091
4.50145
4.53789
4.60606
4.687
4.76566
4.84102
4.91033
4.97105
5.02625
5.07805
5.12898
5.17663
5.21856
5.25606
5.2891
5.31725
5.34201
5.36443
5.38572
5.40552
5.42364
5.44067
5.45588
5.46861
5.47938
5.48862
5.49683
5.50386
5.50963
5.51432
5.51775
5.51973
5.52032
5.51954
5.51739
5.51395
5.50933
5.50336
5.49609
5.48761
5.47744
5.46514
5.45002
5.43215
5.4114
5.38704
5.36003
5.33123
5.29918
5.26243
5.21893
5.16899
5.11238
5.04718
4.97654
4.90355
4.82458
4.73674
4.63633
4.52958
4.42484
4.32791
4.26129
4.22907
4.33311
4.37453
4.45398
4.54584
4.63089
4.7117
4.78527
4.84774
4.9042
4.95708
5.01041
5.0604
5.10336
5.14189
5.17575
5.20395
5.22867
5.25102
5.27272
5.29294
5.31132
5.32895
5.34469
5.35753
5.36833
5.37755
5.38592
5.39311
5.39897
5.40384
5.40742
5.40946
5.41008
5.4093
5.40711
5.40362
5.399
5.39298
5.38568
5.37734
5.36732
5.35514
5.33989
5.32183
5.30089
5.27583
5.24814
5.21938
5.18741
5.15067
5.10622
5.05504
4.99712
4.92879
4.85481
4.78018
4.69904
4.60797
4.50009
4.38387
4.26935
4.159
4.08572
4.05149
4.16776
4.2143
4.30726
4.4116
4.50248
4.58883
4.66687
4.73048
4.78789
4.84137
4.8974
4.95002
4.99369
5.03322
5.06798
5.096
5.12057
5.14267
5.16485
5.1855
5.20402
5.22235
5.23871
5.25156
5.26233
5.27146
5.28002
5.28738
5.29328
5.29836
5.30212
5.3042
5.30485
5.30408
5.30183
5.29826
5.29367
5.28761
5.28025
5.2721
5.26227
5.25032
5.2349
5.21666
5.19569
5.16979
5.14129
5.1128
5.08106
5.04465
4.99917
4.94682
4.88803
4.81619
4.73849
4.66292
4.58008
4.48663
4.37071
4.24437
4.12024
3.99358
3.91372
3.87806
4.00517
4.05662
4.16587
4.28454
4.38013
4.47216
4.55507
4.61897
4.67707
4.73049
4.78969
4.84536
4.88925
4.9298
4.96561
4.99312
5.01746
5.03908
5.06187
5.08301
5.10146
5.12063
5.13773
5.15045
5.16116
5.1701
5.1789
5.18645
5.19233
5.19765
5.20161
5.20372
5.20439
5.20363
5.20131
5.19764
5.19313
5.18699
5.17953
5.17167
5.16206
5.15045
5.13481
5.11639
5.0956
5.06866
5.03915
5.01122
4.97984
4.94417
4.8975
4.84399
4.785
4.70912
4.62708
4.55151
4.46736
4.37278
4.24802
4.11078
3.97791
3.83088
3.74499
3.70879
3.84515
3.90073
4.02985
4.16509
4.26348
4.36141
4.44986
4.51287
4.57153
4.62398
4.68702
4.74633
4.7897
4.83134
4.86847
4.89506
4.91913
4.93994
4.96356
4.98525
5.00335
5.02357
5.04158
5.05398
5.06459
5.07321
5.08234
5.0901
5.09588
5.1015
5.1057
5.10779
5.10848
5.10774
5.10534
5.10153
5.09716
5.09093
5.08329
5.0758
5.06643
5.05534
5.03937
5.02074
5.00046
4.97222
4.94136
4.91442
4.88346
4.84908
4.8009
4.74616
4.68799
4.60729
4.52
4.44576
4.36051
4.26661
4.13182
3.98266
3.84308
3.66992
3.57926
3.54374
3.68766
3.74572
3.8993
4.05387
4.15198
4.25629
4.35132
4.41177
4.47113
4.52129
4.58916
4.65295
4.69465
4.73758
4.77645
4.80151
4.82538
4.84494
4.86974
4.89209
4.90938
4.93096
4.95012
4.96189
4.97244
4.98054
4.99015
4.99816
5.00368
5.0097
5.01418
5.01619
5.01691
5.01621
5.0137
5.00969
5.00556
4.9992
4.99127
4.98432
4.97515
4.96481
4.94834
4.92943
4.91014
4.88023
4.84755
4.82219
4.7916
4.75928
4.70909
4.65291
4.59707
4.51047
4.41656
4.34554
4.25906
4.1684
4.02188
3.8594
3.71687
3.50934
3.41633
3.38305
3.53277
3.59045
3.77439
3.95169
4.04491
4.15646
4.25966
4.3152
4.37582
4.42179
4.49591
4.56531
4.6037
4.64824
4.68949
4.71215
4.73607
4.75372
4.78022
4.8034
4.81923
4.84261
4.86323
4.87394
4.88453
4.89183
4.90213
4.91044
4.9155
4.92205
4.92687
4.92873
4.92947
4.92883
4.92621
4.9219
4.91816
4.91163
4.90323
4.89702
4.88797
4.87871
4.8615
4.84217
4.82459
4.79249
4.75733
4.73442
4.7039
4.67476
4.62175
4.56373
4.51242
4.41844
4.31598
4.25086
4.16237
4.07864
3.91795
3.74006
3.60101
3.34732
3.25612
3.22694
3.38076
3.43344
3.65541
3.85968
3.94129
4.06159
4.17525
4.22252
4.28568
4.32476
4.40707
4.48361
4.51632
4.56304
4.60762
4.62664
4.65111
4.66592
4.69486
4.7191
4.73252
4.75832
4.78083
4.78987
4.8007
4.80683
4.81811
4.82681
4.83109
4.83837
4.84359
4.84518
4.84597
4.84544
4.84269
4.83794
4.83479
4.82804
4.81891
4.81375
4.80465
4.79694
4.77862
4.75863
4.74378
4.70882
4.67024
4.65101
4.61996
4.59557
4.5386
4.47802
4.43437
4.33104
4.21729
4.16193
4.06961
3.99802
3.81973
3.62332
3.49797
3.18142
3.09874
3.07569
3.23215
3.27285
3.54274
3.7793
3.83983
3.97128
4.09865
4.13292
4.20098
4.22932
4.32248
4.40821
4.43192
4.48172
4.53092
4.54455
4.57049
4.5811
4.61355
4.63918
4.64887
4.67795
4.70288
4.70939
4.72085
4.72524
4.73795
4.74713
4.75022
4.7585
4.76421
4.76536
4.76623
4.76585
4.76296
4.75757
4.75532
4.74828
4.73806
4.73439
4.7249
4.71943
4.6995
4.67845
4.66777
4.62906
4.58579
4.57201
4.5393
4.52188
4.45932
4.39502
4.36345
4.24811
4.11931
4.07918
3.97963
3.92754
3.72695
3.50732
3.41127
3.00833
2.94457
2.92965
3.08776
3.10632
3.4369
3.71238
3.73881
3.88517
4.03067
4.04535
4.12225
4.1344
4.24203
4.33962
4.34975
4.40401
4.45961
4.46538
4.49427
4.49877
4.53619
4.56368
4.5678
4.60134
4.6294
4.63217
4.64491
4.64677
4.66151
4.6713
4.67261
4.68229
4.68858
4.68907
4.69007
4.68991
4.68688
4.68056
4.67961
4.6722
4.66039
4.65885
4.64843
4.64614
4.62391
4.60121
4.59669
4.55306
4.50339
4.49755
4.46133
4.45398
4.38362
4.31383
4.30038
4.16959
4.02063
4.00342
3.89092
3.86855
3.63932
3.38941
3.34572
2.82365
2.79439
2.78916
)
;

boundaryField
{
    left
    {
        type            zeroGradient;
    }
    right
    {
        type            zeroGradient;
    }
    interface
    {
        type            fixedValue;
        value           nonuniform List<scalar> 
64
(
3.01668
3.01668
3.38662
3.68626
3.68626
3.8431
4.00091
4.00091
4.08548
4.08548
4.20298
4.30842
4.30842
4.36599
4.42607
4.42607
4.45767
4.45767
4.49865
4.5274
4.5274
4.56405
4.59416
4.59416
4.60809
4.60809
4.62429
4.63446
4.63446
4.64514
4.65178
4.65178
4.65288
4.65288
4.64979
4.64279
4.64279
4.63514
4.62217
4.62217
4.61085
4.61085
4.58699
4.56298
4.56298
4.51607
4.46196
4.46196
4.42246
4.42246
4.34662
4.27266
4.27266
4.1317
3.96892
3.96892
3.84519
3.84519
3.59703
3.32633
3.32633
2.72035
2.72035
2.72035
)
;
    }
    bottom
    {
        type            fixedValue;
        value           uniform 10;
    }
    defaultFaces
    {
        type            empty;
    }
}


// ************************************************************************* //
