/*--------------------------------*- C++ -*----------------------------------*\
| =========                 |                                                 |
| \\      /  F ield         | OpenFOAM: The Open Source CFD Toolbox           |
|  \\    /   O peration     | Version:  5.x                                   |
|   \\  /    A nd           | Web:      www.OpenFOAM.org                      |
|    \\/     M anipulation  |                                                 |
\*---------------------------------------------------------------------------*/
FoamFile
{
    version     2.0;
    format      ascii;
    class       volScalarField;
    location    "1.1";
    object      gradTy;
}
// * * * * * * * * * * * * * * * * * * * * * * * * * * * * * * * * * * * * * //

dimensions      [0 -1 0 1 0 0 0];

internalField   nonuniform List<scalar> 
6300
(
32272.1
32216.2
32160.4
32104.8
32049.4
31994.2
31939.3
31884.8
31830.7
31777.1
31724.1
31671.6
31619.8
31568.7
31518.3
-0.040676
-0.122193
-0.204198
-0.286952
-0.370605
-0.45517
-0.540473
-0.626125
-0.711499
-0.795742
-0.877825
-0.956643
-1.03117
-1.10063
-1.16475
-0.0676022
-0.203108
-0.339489
-0.477224
-0.616619
-0.757739
-0.900333
-1.04377
-1.18699
-1.32852
-1.46654
-1.59902
-1.72406
-1.84017
-1.94671
-0.0942173
-0.283127
-0.473405
-0.665813
-0.860882
-1.0588
-1.25931
-1.46158
-1.66413
-1.86478
-2.06074
-2.24881
-2.42583
-2.58924
-2.73777
-0.120359
-0.36176
-0.605154
-0.85169
-1.10223
-1.3572
-1.61645
-1.87903
-2.14306
-2.40562
-2.66271
-2.90954
-3.14109
-3.35304
-3.54295
-0.145813
-0.438382
-0.73373
-1.03352
-1.33908
-1.65126
-1.97016
-2.29492
-2.62338
-2.95181
-3.27482
-3.58544
-3.87586
-4.13879
-4.3695
-0.170306
-0.512186
-0.857812
-1.2095
-1.56923
-1.93847
-2.3179
-2.70699
-3.10357
-3.50329
-3.89915
-4.28136
-4.63793
-4.95658
-5.22804
-0.193523
-0.582212
-0.975786
-1.37736
-1.78977
-2.21541
-2.65585
-3.11142
-3.58047
-4.05847
-4.53696
-5.00272
-5.43773
-5.8213
-6.13535
-0.215088
-0.64732
-1.08571
-1.5343
-1.997
-2.47742
-2.97855
-3.50224
-4.04826
-4.61296
-5.1873
-5.75457
-6.28867
-6.75519
-7.11881
-0.234583
-0.706234
-1.18537
-1.67704
-2.18639
-2.71858
-3.27854
-3.87054
-4.49717
-5.15759
-5.84444
-6.53925
-7.20678
-7.79149
-8.22458
-0.251579
-0.757623
-1.2724
-1.802
-2.35284
-2.93183
-3.54634
-4.20402
-4.91208
-5.67551
-6.49327
-7.35078
-8.20717
-8.97879
-9.53315
-0.26567
-0.800226
-1.34456
-1.90561
-2.491
-3.10939
-3.77078
-4.48692
-5.27136
-6.13877
-7.10191
-8.16289
-9.29173
-10.3827
-11.1923
-0.276529
-0.833005
-1.3999
-1.98476
-2.59605
-3.24379
-3.9403
-4.70128
-5.54736
-6.5059
-7.61224
-8.90656
-10.4136
-12.0674
-13.4967
-0.283952
-0.85531
-1.43722
-2.03736
-2.66451
-3.32928
-4.04515
-4.83029
-5.71057
-6.7248
-7.93405
-9.43695
-11.3881
-13.9761
-17.073
-0.287903
-0.867014
-1.45621
-2.06283
-2.69522
-3.36349
-4.08052
-4.86392
-5.73948
-6.74823
-7.96166
-9.51853
-11.7253
-15.3753
-22.9407
31472.8
31432.1
31392
31352.4
31313.5
31275.3
31237.7
31200.9
31164.7
31129.3
31094.6
31060.7
31027.6
30995.2
30963.7
30932.9
30903
30873.9
30845.5
30818
30791.2
30765.1
30739.8
30715.3
30691.4
30668.2
30645.6
30623.7
30602.3
30581.5
30561.2
30541.4
30522.1
30503.1
30484.6
30466.4
30448.5
30430.9
30413.5
30396.4
30379.4
30362.6
30345.9
30329.3
30312.8
30296.3
30279.7
30263.1
30246.5
30229.7
30212.8
30195.7
30178.4
30160.8
30143
30124.8
30106.3
30087.4
30068
30048.2
30028
30007.2
29985.9
29964
29941.4
29918.3
29894.5
29870.1
29844.9
29819.1
29792.5
29765.1
29737
29708.2
29678.5
29648.1
29616.9
29584.9
29552.1
29518.5
29484.1
29448.9
29412.9
29376.2
29338.7
29300.5
29261.5
29221.9
29181.5
29140.4
-1.21888
-1.26509
-1.309
-1.35138
-1.39293
-1.43412
-1.47507
-1.51547
-1.55463
-1.59151
-1.62494
-1.65375
-1.67692
-1.69369
-1.70356
-1.70628
-1.70181
-1.6902
-1.67159
-1.64613
-1.61405
-1.57566
-1.53134
-1.48159
-1.42699
-1.36816
-1.30575
-1.24039
-1.17268
-1.10317
-1.0324
-0.960827
-0.888851
-0.816787
-0.744865
-0.673228
-0.601954
-0.531079
-0.460618
-0.390578
-0.320952
-0.251704
-0.182754
-0.113958
-0.0451172
0.0240067
0.0936557
0.164036
0.235282
0.307432
0.380419
0.454084
0.528187
0.602433
0.676484
0.749975
0.822522
0.893738
0.963248
1.03072
1.09586
1.15847
1.21835
1.27538
1.32941
1.38025
1.42772
1.47159
1.51166
1.54776
1.57978
1.60769
1.63148
1.65112
1.66656
1.67773
1.68452
1.68686
1.68476
1.67829
1.66761
1.65287
1.63419
1.61152
1.58466
1.55327
1.5169
1.47513
1.42761
1.3742
-2.03601
-2.11191
-2.18384
-2.25335
-2.32184
-2.39031
-2.45904
-2.5275
-2.59436
-2.65769
-2.71527
-2.76492
-2.80477
-2.83351
-2.85034
-2.85498
-2.84744
-2.8279
-2.79661
-2.75383
-2.69989
-2.63527
-2.56063
-2.4768
-2.38481
-2.28575
-2.18075
-2.07086
-1.95711
-1.84045
-1.72177
-1.60185
-1.4814
-1.36094
-1.24085
-1.12135
-1.00251
-0.884374
-0.766944
-0.650236
-0.534264
-0.418999
-0.304324
-0.189997
-0.0756555
0.0391512
0.15489
0.271963
0.390632
0.510971
0.632859
0.755999
0.879962
1.00423
1.12822
1.2513
1.37282
1.49209
1.60846
1.72135
1.83027
1.93487
2.0349
2.13017
2.22047
2.30553
2.38498
2.45842
2.52545
2.58576
2.6392
2.68573
2.72539
2.7582
2.78407
2.80283
2.81426
2.81817
2.81453
2.80351
2.78546
2.76076
2.72968
2.69223
2.64804
2.59643
2.53652
2.46742
2.38847
2.29934
-2.86084
-2.96452
-3.0623
-3.15692
-3.25096
-3.3463
-3.4436
-3.54203
-3.63939
-3.73238
-3.81726
-3.8904
-3.94886
-3.99068
-4.01491
-4.02143
-4.01056
-3.98274
-3.93838
-3.8778
-3.80133
-3.70954
-3.60333
-3.48397
-3.353
-3.2121
-3.06293
-2.90706
-2.7459
-2.5808
-2.41304
-2.24379
-2.07407
-1.90468
-1.73611
-1.56859
-1.40214
-1.23672
-1.07229
-0.908884
-0.746596
-0.58547
-0.425403
-0.266059
-0.106854
0.0529745
0.214237
0.377638
0.543633
0.71235
0.883577
1.05682
1.23141
1.40654
1.58138
1.75502
1.92649
2.09477
2.25887
2.41787
2.57108
2.71803
2.85849
2.99231
3.11929
3.23909
3.35113
3.4547
3.54912
3.63389
3.7088
3.77391
3.82943
3.8755
3.91205
3.93875
3.95508
3.9606
3.95517
3.93911
3.91312
3.87806
3.83459
3.78286
3.72232
3.65175
3.56956
3.47413
3.36419
3.2391
-3.69736
-3.82548
-3.9452
-4.06121
-4.17813
-4.29942
-4.42647
-4.5581
-4.69068
-4.81878
-4.93617
-5.03704
-5.11692
-5.17319
-5.20503
-5.21297
-5.1981
-5.16144
-5.10358
-5.02468
-4.92487
-4.80462
-4.66503
-4.5079
-4.33553
-4.1504
-3.95484
-3.75091
-3.54041
-3.32505
-3.10651
-2.88644
-2.66633
-2.44728
-2.22991
-2.01433
-1.80035
-1.58769
-1.3762
-1.16597
-0.957296
-0.750457
-0.545481
-0.341954
-0.138981
0.0647008
0.270476
0.479549
0.692691
0.910092
1.13137
1.35571
1.58205
1.80927
2.03626
2.26185
2.48474
2.70349
2.91661
3.12274
3.32089
3.51056
3.69165
3.86429
4.02847
4.18383
4.32946
4.46417
4.58671
4.69624
4.79252
4.87591
4.94707
5.00651
5.05425
5.0896
5.11147
5.11879
5.11114
5.08903
5.05387
5.00748
4.95141
4.88621
4.81105
4.72383
4.6217
4.50177
4.36178
4.20055
-4.55148
-4.69852
-4.83341
-4.96419
-5.09902
-5.24427
-5.40278
-5.57288
-5.74856
-5.92071
-6.079
-6.21407
-6.31916
-6.39103
-6.42974
-6.43751
-6.41719
-6.37086
-6.29923
-6.20186
-6.07804
-5.92772
-5.75216
-5.55395
-5.33662
-5.10388
-4.85896
-4.60437
-4.34209
-4.07403
-3.80231
-3.5293
-3.25719
-2.9876
-2.72122
-2.45787
-2.19676
-1.93707
-1.67837
-1.42089
-1.16541
-0.912811
-0.663509
-0.41708
-0.172146
0.0734079
0.321968
0.575613
0.835636
1.10228
1.3748
1.65176
1.93148
2.21243
2.49326
2.77266
3.04905
3.32043
3.58452
3.83921
4.08305
4.31556
4.53712
4.74858
4.95052
5.14269
5.3237
5.4913
5.64318
5.77781
5.89496
5.99569
6.08173
6.15455
6.21442
6.26003
6.28895
6.29871
6.2881
6.25792
6.21095
6.15102
6.08156
6.00406
5.91731
5.81754
5.6996
5.55841
5.39008
5.19256
-5.43193
-5.58883
-5.72736
-5.8611
-6.00464
-6.16979
-6.36216
-6.57938
-6.81132
-7.04242
-7.25514
-7.43411
-7.56909
-7.65653
-7.69889
-7.7024
-7.67364
-7.61664
-7.53187
-7.41705
-7.26929
-7.08714
-6.87186
-6.62749
-6.35988
-6.07489
-5.77701
-5.46889
-5.15209
-4.82825
-4.5
-4.17086
-3.84445
-3.5233
-3.2082
-2.89818
-2.59116
-2.28505
-1.97879
-1.67295
-1.36942
-1.07045
-0.777432
-0.490086
-0.206237
0.0777538
0.366101
0.662457
0.969
1.28597
1.61179
1.94377
2.27911
2.6157
2.95227
3.28777
3.62055
3.94783
4.26592
4.57125
4.86148
5.13625
5.39708
5.64648
5.88657
6.11755
6.33712
6.54094
6.72438
6.88443
7.02091
7.13647
7.23529
7.32111
7.39497
7.45435
7.49386
7.5078
7.49306
7.45081
7.38652
7.30813
7.22311
7.13509
7.04216
6.93727
6.81086
6.654
6.46027
6.22646
-6.35306
-6.50527
-6.6278
-6.7435
-6.87865
-7.05555
-7.28514
-7.564
-7.87463
-8.1899
-8.47925
-8.71684
-8.88688
-8.98632
-9.02338
-9.01316
-8.97017
-8.90187
-8.80725
-8.67915
-8.50957
-8.29379
-8.03298
-7.73407
-7.40772
-7.06409
-6.70941
-6.34555
-5.97185
-5.58852
-5.19862
-4.80818
-4.42384
-4.05003
-3.68763
-3.33393
-2.98405
-2.63304
-2.27846
-1.92153
-1.56672
-1.21941
-0.883104
-0.557993
-0.240489
0.0758547
0.398713
0.734618
1.08732
1.45684
1.83983
2.23085
2.62479
3.01887
3.41265
3.80662
4.19978
4.58824
4.96549
5.32476
5.66189
5.97671
6.27316
6.55745
6.83532
7.10843
7.37278
7.61947
7.83873
8.02444
8.17644
8.30075
8.40698
8.50423
8.59575
8.67662
8.73488
8.75748
8.73694
8.67473
8.58164
8.47408
8.36824
8.27247
8.18353
8.08727
7.96526
7.80199
7.58751
7.31756
-7.3395
-7.46387
-7.53744
-7.59723
-7.69178
-7.86463
-8.13625
-8.50183
-8.93014
-9.3736
-9.77674
-10.0957
-10.3052
-10.4048
-10.4148
-10.37
-10.3021
-10.2239
-10.1298
-9.99995
-9.81539
-9.56431
-9.248
-8.87928
-8.47954
-8.06834
-7.65422
-7.23559
-6.80475
-6.35753
-5.89734
-5.43607
-4.98747
-4.55974
-4.154
-3.76368
-3.37809
-2.98575
-2.58111
-2.16668
-1.75292
-1.35223
-0.972423
-0.614762
-0.272927
0.0646743
0.4126
0.782614
1.1814
1.60827
2.0562
2.51356
2.9701
3.42224
3.87246
4.32632
4.78542
5.24442
5.69052
6.10969
6.49389
6.84306
7.16613
7.47701
7.79021
8.11117
8.43306
8.73665
9.00049
9.21204
9.37081
9.48999
9.59052
9.69444
9.81068
9.93022
10.026
10.068
10.0395
9.94178
9.79627
9.63623
9.49751
9.39868
9.33411
9.27302
9.17779
9.02245
8.79339
8.48769
-8.43506
-8.49489
-8.46613
-8.40015
-8.3915
-8.53086
-8.85144
-9.34866
-9.9631
-10.6146
-11.1946
-11.6314
-11.8808
-11.9516
-11.8844
-11.7593
-11.6478
-11.5683
-11.5029
-11.3988
-11.2163
-10.9281
-10.5379
-10.0685
-9.56729
-9.0762
-8.60498
-8.14273
-7.66072
-7.14478
-6.59718
-6.04529
-5.5206
-5.03742
-4.5978
-4.1863
-3.78158
-3.35591
-2.89763
-2.41063
-1.92007
-1.45483
-1.02969
-0.648627
-0.299199
0.0386625
0.394688
0.789158
1.23501
1.7293
2.25894
2.79738
3.32159
3.82823
4.32685
4.83827
5.37092
5.91892
6.45404
6.94464
7.37598
7.74661
8.07618
8.39275
8.73337
9.11203
9.51908
9.91045
10.2369
10.4749
10.6214
10.7053
10.7683
10.866
11.02
11.2171
11.3937
11.4791
11.4409
11.2767
11.0309
10.7667
10.5684
10.4746
10.4787
10.507
10.476
10.3482
10.1088
9.76928
-9.71932
-9.65284
-9.44775
-9.11994
-8.87764
-8.93591
-9.31226
-10.0269
-10.943
-11.9586
-12.8191
-13.4372
-13.7141
-13.6972
-13.4378
-13.1296
-12.948
-12.8927
-12.9324
-12.9112
-12.77
-12.4392
-11.9421
-11.3042
-10.6409
-10.0559
-9.5433
-9.07876
-8.566
-7.97806
-7.30364
-6.61577
-5.99439
-5.45274
-5.00148
-4.59954
-4.21558
-3.77339
-3.25584
-2.66
-2.05103
-1.49992
-1.0237
-0.63714
-0.309015
-0.013701
0.321226
0.72155
1.2187
1.79935
2.44892
3.10166
3.69839
4.2458
4.76288
5.31971
5.9344
6.61207
7.28179
7.86506
8.34567
8.70947
9.00511
9.27403
9.62191
10.0722
10.6279
11.1779
11.6008
11.8699
11.9625
11.9509
11.8964
11.9569
12.1674
12.5337
12.8931
13.0685
13.024
12.7294
12.2922
11.8028
11.4891
11.4099
11.5889
11.8269
11.9138
11.8352
11.569
11.2099
-11.3425
-11.0101
-10.6057
-9.71619
-8.93031
-8.88206
-9.28504
-10.4139
-11.7787
-13.5249
-14.7918
-15.7336
-15.9694
-15.7912
-15.0606
-14.3166
-14.0653
-14.0796
-14.4486
-14.5954
-14.596
-14.1892
-13.5483
-12.5759
-11.6011
-10.9309
-10.4118
-10.0837
-9.57902
-8.93534
-8.02899
-7.09006
-6.35294
-5.73749
-5.33379
-4.98653
-4.7331
-4.29908
-3.7265
-2.92805
-2.09848
-1.43699
-0.888443
-0.541386
-0.271478
-0.123037
0.15363
0.51452
1.0821
1.77009
2.63425
3.48645
4.14606
4.70686
5.14148
5.71762
6.40695
7.31641
8.23371
8.93299
9.48316
9.77007
9.97209
10.0411
10.3625
10.8799
11.7442
12.6279
13.1854
13.5184
13.4527
13.2575
12.8581
12.8308
13.0895
13.8592
14.6564
14.9736
14.9661
14.3865
13.6275
12.5846
12.071
11.9724
12.6129
13.3633
13.5892
13.5912
13.1619
12.8819
-13.6405
-12.4704
-12.4617
-10.1624
-7.92004
-8.17765
-8.21165
-10.46
-12.0643
-15.7804
-17.2316
-19.0453
-18.8198
-18.6795
-16.7016
-14.7931
-14.799
-14.7548
-16.2838
-16.4894
-17.0076
-16.2755
-15.6313
-13.8501
-12.1217
-11.5878
-11.0044
-11.3422
-10.7916
-10.2703
-8.80069
-7.27318
-6.53572
-5.71682
-5.58434
-5.23799
-5.51028
-5.02398
-4.52211
-3.24061
-1.90358
-1.21117
-0.462789
-0.334359
-0.05888
-0.416949
-0.135208
0.00982118
0.772077
1.48703
2.83673
4.14849
4.7359
5.34946
5.31609
5.95229
6.56226
8.00916
9.49928
10.2153
10.9994
10.9524
11.1301
10.4441
10.8203
11.1874
12.8317
14.5469
15.0923
15.7401
15.1286
14.8569
13.2831
13.2919
13.2745
15.1437
17.1099
17.345
17.7306
16.3006
15.3704
12.6031
12.0542
11.4691
13.4776
15.6538
15.5856
15.967
14.5387
14.9752
-17.8107
-12.257
-17.6149
-10.5257
-3.30894
-7.79453
-3.949
-11.433
-9.30846
-21.2966
-19.149
-25.293
-21.547
-24.2136
-18.2424
-12.5125
-15.6043
-13.1645
-20.0242
-17.9332
-21.2194
-18.2349
-19.3514
-15.0483
-10.9222
-12.3158
-10.2703
-13.8799
-11.9622
-12.9706
-9.65574
-6.31855
-6.83568
-4.7076
-6.1428
-4.59858
-7.37991
-5.77136
-6.44049
-3.63315
-0.780423
-1.06591
0.855669
-0.339077
1.06601
-1.63232
-0.227329
-1.3839
0.529977
0.289761
3.09376
5.85353
5.28803
6.92361
4.52638
6.22462
5.51219
8.63956
11.8795
11.3995
13.7122
11.8113
13.5316
9.3172
11.2908
9.65528
13.8169
18.1499
16.8517
19.7748
16.3147
18.3308
11.4285
13.79
10.742
16.2882
22.0554
19.4993
23.1088
17.4944
19.7581
9.42642
12.089
7.23054
14.1002
21.1755
16.934
20.9483
13.2298
18.5164
-30.9427
3.6704
-40.6913
-11.0715
18.1545
-19.407
16.6294
-26.2412
13.7709
-47.1669
-9.12504
-45.7813
-15.0386
-42.1848
-19.4344
2.47253
-24.374
1.81823
-36.6526
-11.6328
-34.4603
-14.288
-30.8751
-15.9907
-1.77318
-17.9953
-1.39226
-24.3763
-8.91856
-21.8962
-10.5423
0.186991
-10.9442
1.4334
-10.9912
2.27011
-15.5707
-3.23866
-13.3648
-4.09078
4.86217
-4.09849
6.66198
-4.08736
8.10005
-8.75657
3.36913
-7.19931
3.38959
-5.29145
3.41432
12.347
2.67048
14.3049
-2.16117
9.96795
-1.06762
9.10747
19.6162
8.56211
22.4921
7.45509
24.4787
-0.721345
16.9578
-0.225693
14.5544
29.8611
12.5313
33.0006
9.61375
34.6464
-3.76754
22.0767
-4.16754
17.1131
38.9849
12.7736
41.7681
7.34236
42.2816
-12.4634
22.9525
-13.8979
14.4253
42.9918
6.39282
42.8232
-6.80819
30.9299
29094.6
29043.7
28991.9
28939.4
28886.1
28832.2
28777.7
28722.7
28667.3
28611.4
28555.2
28498.8
28442.1
28385.3
28328.5
1.30907
1.23023
1.14472
1.05396
0.959594
0.863199
0.766203
0.669755
0.574673
0.481452
0.390287
0.301127
0.213718
0.127661
0.0424567
2.19023
2.05766
1.91354
1.76051
1.60147
1.43924
1.27631
1.11466
0.955655
0.800075
0.648204
0.499895
0.354672
0.211813
0.0704366
3.08497
2.89666
2.69132
2.4731
2.24653
2.01597
1.78514
1.5569
1.33316
1.11494
0.902511
0.695538
0.493229
0.294464
0.0979057
3.9999
3.75271
3.48198
3.19402
2.89558
2.59296
2.29135
1.99459
1.70507
1.42394
1.15129
0.886459
0.6282
0.37488
0.124617
4.94316
4.6323
4.28988
3.92542
3.54881
3.16894
2.79274
2.42502
2.06856
1.72438
1.39218
1.07074
0.758177
0.452207
0.150283
5.92505
5.54326
5.11969
4.66883
4.20523
3.74119
3.28564
2.84424
2.41977
2.01279
1.62225
1.24606
0.881502
0.525449
0.174572
6.95935
6.4955
5.97635
5.42459
4.86179
4.30471
3.7643
3.24651
2.75351
2.28474
1.83791
1.4097
0.996258
0.593474
0.197111
8.06575
7.50217
6.86486
6.19075
5.51204
4.85102
4.21995
3.62384
3.06298
2.53474
2.0349
1.55851
1.10031
0.655038
0.217491
9.27478
8.582
7.7896
6.96104
6.14417
5.36674
4.64006
3.96558
3.33966
2.75626
2.20841
1.68906
1.19137
0.708847
0.235293
10.6376
9.76178
8.75071
7.7197
6.7371
5.83156
5.00754
4.25839
3.57362
2.9421
2.35335
1.79789
1.26721
0.753648
0.250115
12.2509
11.0761
9.73112
8.42924
7.25294
6.21479
5.2999
4.48656
3.75411
3.08504
2.46491
1.88185
1.32588
0.788375
0.261616
14.3491
12.5596
10.6676
9.0122
7.62999
6.47434
5.49036
4.63355
3.87104
3.17889
2.5393
1.93863
1.366
0.812312
0.269575
17.5536
14.1454
11.3672
9.3217
7.78019
6.56178
5.55321
4.68593
3.91743
3.22003
2.57465
1.96729
1.38712
0.825242
0.273929
23.1147
15.1008
11.3329
9.12678
7.60709
6.43898
5.47434
4.63922
3.89252
3.20905
2.57185
1.96864
1.38985
0.827551
0.274808
-0.288723
-0.86919
-1.45886
-2.06434
-2.69301
-3.35357
-4.05676
-4.81667
-5.65316
-6.59657
-7.69777
-9.05162
-10.8564
-13.5775
-18.4066
-0.287132
-0.864058
-1.44906
-2.0478
-2.6664
-3.31164
-3.99127
-4.7143
-5.49142
-6.33516
-7.25843
-8.26444
-9.29762
-10.0152
-8.72545
-0.283677
-0.853279
-1.42965
-2.0174
-2.62119
-3.24574
-3.89551
-4.57416
-5.2831
-6.01819
-6.76131
-7.45813
-7.95753
-7.84644
-6.03199
-0.278647
-0.837757
-1.4023
-1.97578
-2.5615
-3.16221
-3.77955
-4.41276
-5.05636
-5.69537
-6.29609
-6.78854
-7.0408
-6.8604
-6.22089
-0.272341
-0.818425
-1.36866
-1.92559
-2.4913
-3.06704
-3.6524
-4.24392
-4.83252
-5.39895
-5.90592
-6.28527
-6.42428
-6.1927
-5.71438
-0.265044
-0.796168
-1.33032
-1.86923
-2.41408
-2.9651
-3.52083
-4.07687
-4.62377
-5.14363
-5.60431
-5.94826
-6.06501
-5.69594
-3.92096
-0.257014
-0.771768
-1.28862
-1.80867
-2.33249
-2.8598
-3.38892
-3.91591
-4.43345
-4.92917
-5.38376
-5.76847
-6.0429
-6.17518
-6.34044
-0.248464
-0.74587
-1.24464
-1.74541
-2.24841
-2.75319
-3.25837
-3.76133
-4.25795
-4.74296
-5.21167
-5.66481
-6.11925
-6.63117
-7.28926
-0.239566
-0.718983
-1.1992
-1.68053
-2.16301
-2.64622
-3.12929
-3.61099
-4.09023
-4.56777
-5.05027
-5.55988
-6.15538
-6.98531
-8.4274
-0.230456
-0.691502
-1.15291
-1.61478
-2.07701
-2.53926
-3.00108
-3.46221
-3.92348
-4.38884
-4.86986
-5.395
-6.02841
-6.91396
-8.40151
-0.221237
-0.663729
-1.10625
-1.54871
-1.9909
-2.43251
-2.87325
-3.31322
-3.7537
-4.19879
-4.65862
-5.15466
-5.72606
-6.42422
-7.20719
-0.211993
-0.635903
-1.05957
-1.48274
-1.90511
-2.32627
-2.74586
-3.16375
-3.58054
-3.9983
-4.42203
-4.86174
-5.3354
-5.87527
-6.5618
-0.202789
-0.608215
-1.01317
-1.41727
-1.82007
-2.22103
-2.61954
-3.01494
-3.40655
-3.7935
-4.17417
-4.545
-4.89854
-5.2242
-5.50201
-0.19368
-0.580826
-0.967313
-1.35264
-1.73624
-2.1174
-2.49527
-2.86864
-3.23566
-3.59287
-3.933
-4.24006
-4.48084
-4.60613
-4.69151
-0.184711
-0.553868
-0.922217
-1.28916
-1.65402
-2.01599
-2.37401
-2.72663
-3.07145
-3.40397
-3.71464
-3.98094
-4.14317
-4.01557
-2.871
-0.175917
-0.527448
-0.878055
-1.22707
-1.57375
-1.91722
-2.25642
-2.58992
-2.91563
-3.23009
-3.52698
-3.7939
-4.00661
-4.13108
-4.24303
-0.167326
-0.501647
-0.834961
-1.16655
-1.49564
-1.82136
-2.14271
-2.45853
-2.7675
-3.06828
-3.36001
-3.64434
-3.93117
-4.25513
-4.69928
-0.158958
-0.476524
-0.793029
-1.10773
-1.41983
-1.72847
-2.03276
-2.33179
-2.62496
-2.91261
-3.19809
-3.49289
-3.82983
-4.29554
-5.10412
-0.150827
-0.45212
-0.752319
-1.05067
-1.34636
-1.63855
-1.92638
-2.20906
-2.48614
-2.75835
-3.02959
-3.31206
-3.63894
-4.09772
-4.92888
-0.142941
-0.428457
-0.712867
-0.995407
-1.27527
-1.55161
-1.82353
-2.09013
-2.35061
-2.60465
-2.8532
-3.10026
-3.35633
-3.64116
-3.94587
-0.135303
-0.405545
-0.674688
-0.941971
-1.20659
-1.4677
-1.72433
-1.97537
-2.21947
-2.45468
-2.67775
-2.88212
-3.05366
-3.1707
-3.29089
-0.127914
-0.383383
-0.637776
-0.89035
-1.14032
-1.38685
-1.62894
-1.86539
-2.09443
-2.31307
-2.51524
-2.68668
-2.78874
-2.69797
-1.92613
-0.120767
-0.361957
-0.602106
-0.840506
-1.07641
-1.30903
-1.53744
-1.7605
-1.97656
-2.18282
-2.374
-2.53933
-2.65769
-2.69813
-2.70051
-0.113857
-0.34124
-0.567634
-0.792367
-1.01476
-1.23409
-1.44961
-1.66042
-1.86542
-2.063
-2.25065
-2.42455
-2.58069
-2.72465
-2.91082
-0.107171
-0.321201
-0.534297
-0.745835
-0.955198
-1.16178
-1.365
-1.56434
-1.75939
-1.95002
-2.13681
-2.32205
-2.51209
-2.72182
-2.97676
-0.100699
-0.301803
-0.502026
-0.700792
-0.897545
-1.09178
-1.28307
-1.47121
-1.65638
-1.83967
-2.02401
-2.21616
-2.42979
-2.68755
-3.00396
-0.094429
-0.283008
-0.470755
-0.65713
-0.841623
-1.02379
-1.2033
-1.3801
-1.55465
-1.72855
-1.90576
-2.0953
-2.31681
-2.61252
-3.07288
-0.08835
-0.264784
-0.440426
-0.61476
-0.787301
-0.957619
-1.1254
-1.29053
-1.45335
-1.6151
-1.77893
-1.95221
-2.15229
-2.42312
-2.89518
-0.0824535
-0.247105
-0.410995
-0.573622
-0.734507
-0.893199
-1.04931
-1.20254
-1.35277
-1.50018
-1.64551
-1.79049
-1.93861
-2.09397
-2.23217
-0.0767323
-0.229951
-0.382431
-0.533684
-0.683222
-0.830559
-0.975202
-1.11661
-1.25412
-1.38669
-1.51231
-1.62658
-1.71989
-1.77673
-1.82316
-0.0711808
-0.213304
-0.354713
-0.494926
-0.633453
-0.769779
-0.903327
-1.03338
-1.15889
-1.27801
-1.38698
-1.47722
-1.52649
-1.46672
-1.03634
-0.0657932
-0.197151
-0.327819
-0.457332
-0.585204
-0.710916
-0.833869
-0.953298
-1.06808
-1.17635
-1.27465
-1.35631
-1.4088
-1.41407
-1.39
-0.0605637
-0.181473
-0.301724
-0.42087
-0.538448
-0.65396
-0.766848
-0.87643
-0.981796
-1.08162
-1.17388
-1.25565
-1.32391
-1.3818
-1.46389
-0.055485
-0.166249
-0.276391
-0.385492
-0.493119
-0.598821
-0.702116
-0.802482
-0.89935
-0.992135
-1.0804
-1.16436
-1.24624
-1.33273
-1.43436
-0.0505489
-0.151454
-0.251779
-0.351134
-0.449123
-0.545347
-0.639413
-0.73096
-0.819736
-0.905787
-0.989897
-1.07451
-1.16537
-1.27317
-1.40949
-0.0457462
-0.13706
-0.227838
-0.31772
-0.406347
-0.493368
-0.578456
-0.661358
-0.742012
-0.820788
-0.899052
-0.980329
-1.07274
-1.19383
-1.37882
-0.041067
-0.123037
-0.204516
-0.285174
-0.364684
-0.442727
-0.519012
-0.593317
-0.66559
-0.736147
-0.806116
-0.878421
-0.960213
-1.07014
-1.26672
-0.0365012
-0.109355
-0.181762
-0.253423
-0.324037
-0.393306
-0.460941
-0.526687
-0.59036
-0.651916
-0.711563
-0.769932
-0.828159
-0.886272
-0.925544
-0.0320384
-0.0959821
-0.159526
-0.222398
-0.284323
-0.345015
-0.404179
-0.461496
-0.516603
-0.569013
-0.617899
-0.661547
-0.696195
-0.715508
-0.728752
-0.0276676
-0.0828863
-0.137754
-0.192029
-0.245462
-0.297785
-0.348698
-0.397839
-0.444719
-0.488558
-0.527877
-0.559421
-0.574888
-0.548971
-0.384941
-0.0233777
-0.070034
-0.116391
-0.162243
-0.207371
-0.251532
-0.294445
-0.335752
-0.37495
-0.411244
-0.443257
-0.468466
-0.482325
-0.478355
-0.46187
-0.0191562
-0.0573888
-0.0953793
-0.13296
-0.169949
-0.206144
-0.241306
-0.27513
-0.307197
-0.336904
-0.363363
-0.385397
-0.402151
-0.416438
-0.448934
-0.0149902
-0.044911
-0.0746512
-0.104085
-0.133076
-0.161472
-0.189096
-0.215726
-0.241085
-0.264822
-0.286542
-0.306
-0.323692
-0.341884
-0.362182
-0.0108654
-0.0325581
-0.0541351
-0.0755159
-0.0966143
-0.117335
-0.137572
-0.157204
-0.1761
-0.194139
-0.211291
-0.227831
-0.244891
-0.265871
-0.301713
-0.00676695
-0.0202848
-0.0337542
-0.0471417
-0.0604128
-0.0735322
-0.0864666
-0.0991915
-0.111707
-0.124072
-0.136465
-0.149301
-0.163367
-0.179542
-0.194333
-0.00267939
-0.00804454
-0.013429
-0.0188468
-0.0243145
-0.0298549
-0.0355034
-0.0413213
-0.0474178
-0.0539833
-0.0613289
-0.0699143
-0.0803786
-0.0941734
-0.12064
0.00141284
0.00420994
0.00692066
0.00948472
0.0118366
0.0139006
0.0155809
0.0167459
0.0172008
0.0166507
0.0146728
0.0107798
0.00492668
-2.08202e-06
0.0136112
0.0055252
0.0165253
0.0273736
0.0379656
0.0481905
0.0579256
0.067027
0.0753107
0.0825216
0.0882813
0.0920105
0.0928401
0.0895962
0.0812989
0.0703746
0.00967283
0.0289471
0.0480063
0.0667039
0.0848874
0.102395
0.119045
0.134625
0.148856
0.161328
0.17137
0.177737
0.177783
0.164432
0.11145
0.0138704
0.0415194
0.068892
0.0958016
0.122057
0.147463
0.171812
0.194883
0.216418
0.236072
0.25329
0.267032
0.275285
0.275098
0.270531
0.0181322
0.0542847
0.0901014
0.125356
0.159822
0.193269
0.225472
0.256215
0.285294
0.312516
0.337635
0.36015
0.378663
0.388819
0.373995
0.022472
0.0672847
0.111703
0.155462
0.198297
0.239943
0.280152
0.318709
0.35547
0.390431
0.423801
0.456063
0.487859
0.519907
0.558425
0.0269034
0.0805599
0.133765
0.186214
0.237601
0.287621
0.335987
0.382458
0.426907
0.469462
0.510752
0.552317
0.596899
0.646526
0.68468
0.0314396
0.0941503
0.156354
0.217706
0.277858
0.336454
0.393145
0.447619
0.499672
0.549385
0.597529
0.646493
0.70246
0.781138
0.927866
0.0360933
0.108094
0.179536
0.250036
0.319199
0.386614
0.45185
0.514471
0.574073
0.630412
0.683753
0.735825
0.792274
0.868524
1.00078
0.0408765
0.122429
0.203374
0.283297
0.361759
0.438293
0.512379
0.58343
0.650754
0.713535
0.770876
0.82214
0.868364
0.917051
0.994641
0.0457997
0.137185
0.227925
0.317575
0.405663
0.491676
0.575023
0.654985
0.730601
0.800451
0.862238
0.911976
0.94277
0.945537
0.936185
0.0508717
0.152391
0.253236
0.35294
0.451012
0.546914
0.640025
0.729569
0.814465
0.892983
0.961983
1.01499
1.03666
0.98247
0.683842
0.0560994
0.168068
0.279341
0.389441
0.497871
0.604095
0.707509
0.807391
0.902769
0.992141
1.07285
1.13979
1.18326
1.18918
1.17392
0.0614875
0.184228
0.30626
0.427105
0.546266
0.663229
0.777452
0.888349
0.995256
1.09733
1.19329
1.28091
1.35598
1.41062
1.42417
0.0670389
0.20088
0.334007
0.465939
0.596189
0.724269
0.849708
0.972085
1.09111
1.20677
1.31955
1.43076
1.5429
1.66062
1.80215
0.0727553
0.218027
0.362583
0.505941
0.647619
0.787145
0.924092
1.05815
1.18932
1.31823
1.44691
1.57998
1.72599
1.89412
2.05505
0.0786371
0.235673
0.391991
0.547109
0.700542
0.851812
1.00048
1.14624
1.28909
1.42986
1.57124
1.72023
1.89373
2.13265
2.54754
0.0846845
0.253816
0.422231
0.589446
0.754966
0.918283
1.07889
1.23634
1.39032
1.54108
1.6903
1.84346
2.01608
2.24901
2.64437
0.0908965
0.272454
0.453303
0.632958
0.810915
0.986631
1.1595
1.32884
1.49379
1.65339
1.80661
1.95321
2.09656
2.25259
2.46646
0.0972713
0.291583
0.4852
0.677646
0.868415
1.05695
1.24257
1.42437
1.60098
1.77011
1.92753
2.06522
2.16826
2.21601
2.2464
0.103805
0.311193
0.517907
0.723491
0.92746
1.12928
1.32827
1.52349
1.71338
1.89496
2.06215
2.20131
2.27835
2.19151
1.55113
0.110493
0.331265
0.551394
0.770449
0.987991
1.20355
1.41658
1.62632
1.83152
2.02979
2.21623
2.38052
2.50226
2.55143
2.56549
0.117329
0.35178
0.585618
0.818447
1.04988
1.27957
1.50716
1.73228
1.95445
2.17283
2.38567
2.58929
2.77654
2.93573
3.04218
0.124305
0.372715
0.620535
0.867397
1.11298
1.35703
1.59943
1.84028
2.08
2.31969
2.5615
2.8094
3.07029
3.35665
3.70739
0.131417
0.394054
0.656107
0.917222
1.17711
1.43561
1.69277
1.94902
2.20555
2.46506
2.73307
3.02046
3.34632
3.73285
4.13646
0.138665
0.41579
0.692315
0.967879
1.24219
1.51511
1.7867
2.05752
2.32901
2.60447
2.89114
3.20478
3.58019
4.09715
4.96204
0.146051
0.437935
0.729176
1.01938
1.30822
1.59548
1.88113
2.16552
2.44967
2.73607
3.03043
3.34616
3.71571
4.2198
5.06257
0.153584
0.460515
0.766739
1.07181
1.37532
1.67693
1.9764
2.27363
2.56872
2.86208
3.15482
3.4501
3.75774
4.10719
4.5623
0.161278
0.483573
0.805083
1.12529
1.44371
1.75983
2.07318
2.38318
2.68891
2.98846
3.27738
3.5454
3.77067
3.92113
4.06975
0.16915
0.507162
0.844307
1.18
1.51364
1.84461
2.17224
2.49564
2.81333
3.12214
3.41436
3.67031
3.83547
3.73628
2.68797
0.177217
0.531339
0.884515
1.23609
1.58538
1.93166
2.27416
2.61199
2.94385
3.26724
3.57646
3.85817
4.08375
4.21045
4.31141
0.185495
0.556154
0.925807
1.29373
1.65916
2.02127
2.37926
2.73241
3.08016
3.42208
3.75755
4.08489
4.40058
4.70239
4.99442
0.193996
0.581651
0.968266
1.35307
1.73518
2.11368
2.48765
2.8565
3.22042
3.5813
3.94418
4.31957
4.72692
5.20097
5.8183
0.202725
0.607847
1.01195
1.41422
1.81367
2.20916
2.59951
2.9839
3.36267
3.73899
4.12199
4.53191
5.00677
5.59989
6.29876
0.211672
0.634729
1.05687
1.47727
1.89484
2.30812
2.71543
3.11511
3.5065
3.89192
4.28096
4.69899
5.20431
5.92517
7.15971
0.220808
0.662224
1.10295
1.54224
1.97891
2.41116
2.83654
3.25196
3.65433
4.04218
4.41962
4.80527
5.25196
5.89348
7.07496
0.230075
0.690169
1.14999
1.60897
2.06596
2.51889
2.96445
3.39774
3.8121
4.1995
4.55242
4.86897
5.1641
5.48655
5.88993
0.23937
0.718277
1.19756
1.67702
2.15575
2.63164
3.10078
3.55655
3.98844
4.38059
4.71029
4.94733
5.05704
5.02317
5.01592
0.248539
0.746093
1.24495
1.74552
2.24743
2.74899
3.24628
3.7318
4.19222
4.60488
4.93231
5.11387
5.04944
4.54105
2.95392
0.257367
0.772974
1.29109
1.813
2.33927
2.8692
3.39983
3.92433
4.429
4.88815
5.25543
5.45099
5.34989
4.80782
3.89222
0.265576
0.798077
1.33455
1.87739
2.42849
2.98881
3.55753
4.13049
4.69722
5.235
5.69755
5.99385
5.95629
5.3337
4.05259
0.272837
0.820383
1.37353
1.93597
2.51122
3.10248
3.71214
4.34083
4.98534
5.63388
6.25487
6.76825
6.96865
6.31656
3.40393
0.278785
0.838759
1.40601
1.98556
2.58274
3.20327
3.85343
4.54004
5.27045
6.05163
6.88665
7.75967
8.57268
8.86883
6.55939
0.283049
0.852046
1.42987
2.02283
2.63794
3.2834
3.96928
4.70871
5.52011
6.43169
7.49166
8.79241
10.5355
13.2299
18.3201
17.7536
12.6346
10.0253
8.37438
7.15143
6.15358
5.29178
4.52116
3.81598
3.15968
2.54044
1.94914
1.37832
0.821536
0.272947
5.60742
8.14816
8.02896
7.34183
6.55735
5.78656
5.05421
4.36272
3.70841
3.08607
2.49022
1.91553
1.35697
0.80971
0.269163
2.18412
5.50844
6.42675
6.37657
5.95346
5.39258
4.78805
4.17826
3.5785
2.99395
2.42521
1.87066
1.32769
0.793187
0.263822
2.18488
4.5392
5.49679
5.66999
5.44499
5.02864
4.52532
3.98667
3.43788
2.89075
2.35024
1.81767
1.29248
0.773058
0.257274
3.58504
4.53962
5.11125
5.23965
5.06915
4.72484
4.2869
3.80195
3.29596
2.78285
2.26966
1.75949
1.2532
0.75037
0.249854
4.28039
4.80567
5.03323
5.01659
4.81375
4.48584
4.08091
3.63168
3.15887
2.6749
2.18689
1.69853
1.21146
0.726039
0.241861
5.53481
5.27818
5.12449
4.92255
4.64495
4.30012
3.90549
3.47763
3.02938
2.56967
2.10426
1.63661
1.16853
0.70081
0.233541
6.17477
5.67886
5.24896
4.88079
4.52262
4.14877
3.75295
3.33759
2.90773
2.46828
2.02312
1.5749
1.1253
0.675234
0.225077
7.25522
6.03339
5.33026
4.83182
4.41097
4.01248
3.6138
3.20746
2.79261
2.37077
1.944
1.51408
1.08236
0.649688
0.216601
7.29295
6.02738
5.26915
4.72874
4.28356
3.87615
3.47979
3.08311
2.68223
2.2766
1.86698
1.45446
1.04001
0.624403
0.208196
6.37073
5.66875
5.0565
4.5593
4.12974
3.73197
3.34584
2.96155
2.57503
2.1851
1.79191
1.39611
0.998424
0.599507
0.199908
5.86589
5.24754
4.76374
4.34267
3.95368
3.57953
3.21047
2.84142
2.47009
2.09577
1.71859
1.33902
0.95765
0.575058
0.191762
5.01923
4.73267
4.42723
4.10357
3.76714
3.4234
3.07497
2.72277
2.36713
2.00835
1.64685
1.28312
0.917687
0.551073
0.183767
4.32708
4.23072
4.10319
3.87319
3.58554
3.27038
2.94197
2.6064
2.26626
1.92275
1.5766
1.22835
0.878508
0.527546
0.175922
2.69607
3.75025
3.85018
3.68269
3.4229
3.12646
2.81383
2.4931
2.16764
1.83892
1.50775
1.17465
0.840073