/*--------------------------------*- C++ -*----------------------------------*\
| =========                 |                                                 |
| \\      /  F ield         | OpenFOAM: The Open Source CFD Toolbox           |
|  \\    /   O peration     | Version:  5.x                                   |
|   \\  /    A nd           | Web:      www.OpenFOAM.org                      |
|    \\/     M anipulation  |                                                 |
\*---------------------------------------------------------------------------*/
FoamFile
{
    version     2.0;
    format      ascii;
    class       volScalarField;
    location    "1.1";
    object      gradTx;
}
// * * * * * * * * * * * * * * * * * * * * * * * * * * * * * * * * * * * * * //

dimensions      [0 -1 0 1 0 0 0];

internalField   nonuniform List<scalar> 
6300
(
-55.8388
-55.7835
-55.6725
-55.5055
-55.2821
-55.0016
-54.6636
-54.2677
-53.8141
-53.3032
-52.7362
-52.115
-51.442
-50.7204
-49.9535
-55.8932
-55.838
-55.7275
-55.561
-55.3381
-55.0582
-54.7205
-54.3246
-53.8704
-53.3584
-52.7896
-52.1659
-51.4899
-50.7649
-49.9947
-56.0017
-55.947
-55.8372
-55.6719
-55.4503
-55.1715
-54.8345
-54.4387
-53.9837
-53.4695
-52.8971
-52.2683
-51.586
-50.854
-50.0766
-56.1639
-56.1099
-56.0016
-55.8382
-55.6187
-55.3419
-55.0065
-54.6112
-54.1552
-53.638
-53.0601
-52.4234
-51.7311
-50.9876
-50.1987
-56.3791
-56.3262
-56.2199
-56.0594
-55.8433
-55.5699
-55.2373
-54.8436
-54.3869
-53.8661
-53.2811
-52.6334
-51.9264
-51.1659
-50.3594
-56.646
-56.5947
-56.4915
-56.3352
-56.1242
-55.8561
-55.5283
-55.1378
-54.6818
-54.1576
-53.564
-52.9018
-52.1746
-51.3894
-50.557
-56.9632
-56.9141
-56.8151
-56.6648
-56.461
-56.201
-55.881
-55.4968
-55.0438
-54.5176
-53.9148
-53.2344
-52.4798
-51.6595
-50.7887
-57.3285
-57.2822
-57.1888
-57.0466
-56.8532
-56.6048
-56.2968
-55.9235
-55.4781
-54.9532
-54.3421
-53.6406
-52.8498
-51.9795
-51.0509
-57.739
-57.6963
-57.6102
-57.4787
-57.2991
-57.0671
-56.777
-56.4214
-55.9908
-55.474
-54.859
-54.1352
-53.2984
-52.3572
-51.3402
-58.1909
-58.1528
-58.0758
-57.9579
-57.7963
-57.5863
-57.3216
-56.9932
-56.5888
-56.0922
-55.4837
-54.742
-53.8504
-52.8097
-51.6553
-58.6798
-58.6471
-58.581
-58.4798
-58.3406
-58.1592
-57.9289
-57.64
-57.2779
-56.8213
-56.2407
-55.4976
-54.5506
-53.375
-52.0029
-59.2001
-59.1737
-59.1202
-59.0384
-58.9261
-58.7798
-58.5938
-58.359
-58.0603
-57.6734
-57.159
-56.4559
-55.4784
-54.1357
-52.4127
-59.7457
-59.726
-59.6864
-59.6262
-59.5444
-59.439
-59.3065
-59.1406
-58.9297
-58.6519
-58.2648
-57.6874
-56.7704
-55.2755
-52.9764
-60.3097
-60.297
-60.2719
-60.2345
-60.1851
-60.1241
-60.0513
-59.966
-59.8649
-59.7383
-59.5596
-59.2572
-58.6392
-57.2188
-53.9989
-60.885
-60.8793
-60.8684
-60.8535
-60.8363
-60.8196
-60.8075
-60.806
-60.8242
-60.8753
-60.9769
-61.1414
-61.3095
-60.9605
-56.8781
-49.2152
-48.5141
-47.7875
-47.0363
-46.2613
-45.463
-44.6416
-43.7975
-42.9313
-42.0442
-41.1377
-40.2141
-39.2763
-38.3276
-37.3717
-36.4123
-35.4537
-34.4996
-33.5541
-32.621
-31.7041
-30.8069
-29.933
-29.0854
-28.267
-27.4804
-26.7277
-26.0108
-25.3312
-24.6901
-24.0883
-23.5265
-23.0051
-22.5241
-22.0837
-21.6838
-21.3242
-21.0046
-20.725
-20.4851
-20.2846
-20.1234
-20.0013
-19.9181
-19.874
-19.8689
-19.9031
-19.9769
-20.0908
-20.2452
-20.4405
-20.6773
-20.9556
-21.2758
-21.6377
-22.0412
-22.4857
-22.9707
-23.4953
-24.0585
-24.659
-25.2956
-25.9666
-26.6706
-27.4059
-28.1707
-28.9633
-29.7815
-30.6235
-31.4869
-32.3695
-33.2691
-34.1833
-35.1097
-36.0461
-36.9899
-37.9388
-38.8903
-39.8419
-40.7911
-41.7355
-42.6727
-43.6005
-44.5165
-45.4184
-46.3038
-47.1698
-48.0137
-48.8323
-49.6223
-49.2536
-48.5505
-47.8223
-47.0701
-46.2945
-45.4958
-44.6739
-43.829
-42.9614
-42.0719
-41.1622
-40.2346
-39.2921
-38.3381
-37.3766
-36.4116
-35.4473
-34.4875
-33.5365
-32.5981
-31.676
-30.774
-29.8956
-29.0439
-28.2219
-27.4321
-26.6768
-25.9578
-25.2765
-24.6341
-24.0315
-23.4692
-22.9475
-22.4666
-22.0263
-21.6266
-21.2673
-20.9481
-20.6688
-20.4292
-20.229
-20.068
-19.9461
-19.863
-19.8187
-19.8133
-19.847
-19.9202
-20.0334
-20.1871
-20.3819
-20.6182
-20.8964
-21.2166
-21.5788
-21.9829
-22.4283
-22.9145
-23.4406
-24.0055
-24.608
-25.2466
-25.9199
-26.6262
-27.364
-28.1315
-28.9268
-29.748
-30.5931
-31.4597
-32.3456
-33.2484
-34.1659
-35.0957
-36.0355
-36.9828
-37.9352
-38.8902
-39.8453
-40.7979
-41.7456
-42.6861
-43.6171
-44.5364
-45.4419
-46.331
-47.2012
-48.0495
-48.8727
-49.6674
-49.3297
-48.6223
-47.891
-47.137
-46.3606
-45.5615
-44.7392
-43.893
-43.0226
-42.1286
-41.2124
-40.2765
-39.3243
-38.3596
-37.3868
-36.4103
-35.4344
-34.4633
-33.5012
-32.5519
-31.6195
-30.7077
-29.8201
-28.9602
-28.1309
-27.3349
-26.5744
-25.8511
-25.1665
-24.5217
-23.9175
-23.3543
-22.8322
-22.3514
-21.9115
-21.5123
-21.1536
-20.835
-20.5564
-20.3175
-20.1179
-19.9575
-19.836
-19.753
-19.7084
-19.7023
-19.735
-19.807
-19.9187
-20.071
-20.2646
-20.4999
-20.7776
-21.0978
-21.4607
-21.8659
-22.3132
-22.8019
-23.331
-23.8994
-24.5057
-25.1486
-25.8263
-26.5373
-27.28
-28.0527
-28.8537
-29.6808
-30.5321
-31.4051
-32.2976
-33.2071
-34.1312
-35.0676
-36.0141
-36.9684
-37.9279
-38.8901
-39.8522
-40.8117
-41.766
-42.7128
-43.6501
-44.5759
-45.4883
-46.3851
-47.2636
-48.1209
-48.9534
-49.7575
-49.4421
-48.7279
-47.992
-47.2357
-46.4589
-45.6604
-44.8386
-43.9914
-43.1176
-42.217
-41.2909
-40.342
-39.3744
-38.3928
-37.4024
-36.4082
-35.4148
-34.4266
-33.4476
-32.482
-31.5337
-30.6069
-29.7054
-28.8329
-27.9926
-27.1872
-26.4189
-25.6894
-25
-24.3517
-23.7452
-23.1808
-22.6584
-22.1779
-21.7388
-21.3406
-20.9829
-20.6654
-20.3878
-20.15
-19.9515
-19.7921
-19.6713
-19.5886
-19.5437
-19.5366
-19.5676
-19.6373
-19.7466
-19.8965
-20.0879
-20.3217
-20.5985
-20.9187
-21.2823
-21.6894
-22.1394
-22.6318
-23.1655
-23.7394
-24.3518
-25.0011
-25.6855
-26.4035
-27.1535
-27.934
-28.7433
-29.5795
-30.4402
-31.3232
-32.2256
-33.145
-34.079
-35.0253
-35.9819
-36.9465
-37.9168
-38.8899
-39.8629
-40.8328
-41.7969
-42.753
-43.6993
-44.6344
-45.5568
-46.4649
-47.356
-48.2272
-49.0744
-49.8934
-49.5884
-48.864
-48.1219
-47.3634
-46.5879
-45.7927
-44.9741
-44.1279
-43.251
-42.342
-41.402
-40.4344
-39.4446
-38.4388
-37.4237
-36.405
-35.3879
-34.3767
-33.3753
-32.3875
-31.4176
-30.4701
-29.5494
-28.6598
-27.8047
-26.9868
-26.2083
-25.4707
-24.775
-24.1223
-23.5131
-22.9475
-22.4253
-21.9458
-21.5082
-21.1115
-20.7553
-20.4392
-20.163
-19.9266
-19.7298
-19.5721
-19.4527
-19.3707
-19.3256
-19.317
-19.3454
-19.4117
-19.5171
-19.6631
-19.8512
-20.0825
-20.358
-20.6779
-21.0425
-21.4518
-21.9055
-22.403
-22.9432
-23.5247
-24.1455
-24.8037
-25.4972
-26.2244
-26.9839
-27.7745
-28.5949
-29.4432
-30.3171
-31.2135
-32.1296
-33.0623
-34.0093
-34.9685
-35.9382
-36.9167
-37.9017
-38.8899
-39.878
-40.8622
-41.8393
-42.8071
-43.7643
-44.7106
-45.6456
-46.5684
-47.4767
-48.3673
-49.2354
-50.0757
-49.7643
-49.0253
-48.2749
-47.5152
-46.7447
-45.9584
-45.149
-44.3085
-43.4304
-42.5116
-41.5528
-40.5589
-39.5377
-38.4985
-37.4501
-36.3998
-35.3529
-34.3131
-33.2835
-32.2676
-31.2697
-30.2951
-29.3493
-28.4375
-27.5636
-26.7304
-25.9395
-25.1921
-24.489
-23.831
-23.2189
-22.6526
-22.1315
-21.6542
-21.2193
-20.8252
-20.471
-20.1564
-19.8818
-19.6473
-19.4529
-19.2979
-19.1811
-19.1008
-19.0557
-19.0453
-19.0698
-19.1307
-19.23
-19.3701
-19.5532
-19.7809
-20.0542
-20.3736
-20.7392
-21.1512
-21.6094
-22.1135
-22.6624
-23.2542
-23.8864
-24.5561
-25.261
-25.9993
-26.7701
-27.5728
-28.4069
-29.2708
-30.1618
-31.0762
-32.01
-32.9595
-33.9222
-34.8967
-35.8822
-36.8779
-37.8818
-38.8903
-39.8986
-40.9016
-41.8948
-42.876
-43.8448
-44.8028
-45.7517
-46.6921
-47.6225
-48.5391
-49.4359
-50.3057
-49.9633
-49.2023
-48.4407
-47.6821
-46.924
-46.1572
-45.3684
-44.5428
-43.6684
-42.7386
-41.754
-40.7226
-39.657
-38.5715
-37.4794
-36.39
-35.308
-34.2352
-33.1724
-32.122
-31.0886
-30.079
-29.1009
-28.1611
-27.2646
-26.4136
-25.6089
-24.8504
-24.1386
-23.4746
-22.8594
-22.2934
-21.7753
-21.3026
-20.8725
-20.4822
-20.1304
-19.8171
-19.5436
-19.3111
-19.1201
-18.9698
-18.8578
-18.7811
-18.737
-18.7241
-18.7428
-18.7953
-18.8851
-19.0161
-19.1918
-19.4145
-19.6852
-20.0037
-20.3702
-20.7848
-21.2482
-21.7604
-22.3207
-22.9265
-23.5739
-24.2588
-24.9775
-25.7283
-26.5109
-27.3267
-28.1766
-29.0598
-29.9732
-30.9114
-31.8681
-32.8382
-33.8186
-34.8092
-35.8117
-36.8273
-37.8553
-38.891
-39.9269
-40.9547
-41.9675
-42.9623
-43.9407
-44.9077
-45.8695
-46.8296
-47.7877
-48.7387
-49.6745
-50.5848
-50.175
-49.3798
-48.6016
-47.8479
-47.1151
-46.3875
-45.6405
-44.8474
-43.9861
-43.0442
-42.0228
-40.9356
-39.8047
-38.6543
-37.5052
-36.3695
-35.25
-34.143
-33.044
-31.9525
-30.8738
-29.8182
-28.7977
-27.8231
-26.9005
-26.031
-25.2123
-24.4422
-23.7202
-23.0485
-22.43
-21.8659
-21.3544
-20.8907
-20.4691
-20.0847
-19.7352
-19.4216
-19.1472
-18.916
-18.7299
-18.5875
-18.4846
-18.4153
-18.3743
-18.3585
-18.3681
-18.4072
-18.4817
-18.5987
-18.7638
-18.9801
-19.2479
-19.5658
-19.9328
-20.3492
-20.8173
-21.3391
-21.9143
-22.5396
-23.2084
-23.9134
-24.6488
-25.4119
-26.2048
-27.0322
-27.8988
-28.8061
-29.7496
-30.7203
-31.7075
-32.7023
-33.7007
-34.7051
-35.7223
-36.7592
-37.8176
-38.8912
-39.967
-41.0294
-42.066
-43.0721
-44.0525
-45.02
-45.9891
-46.9697
-47.9624
-48.9598
-49.9489
-50.9151
-50.3835
-49.532
-48.7266
-47.9831
-47.2984
-46.645
-45.9785
-45.2502
-44.4195
-43.4641
-42.3864
-41.2118
-39.9803
-38.7353
-37.5116
-36.3261
-35.1744
-34.0397
-32.9052
-31.7648
-30.6262
-29.5071
-28.4292
-27.4108
-26.4606
-25.5757
-24.7467
-23.9654
-23.2302
-22.5467
-21.923
-21.3636
-20.8655
-20.4192
-20.0132
-19.6379
-19.2893
-18.9704
-18.6898
-18.457
-18.2776
-18.1495
-18.0641
-18.0099
-17.9764
-17.9571
-17.9523
-17.969
-18.0184
-18.1131
-18.263
-18.4726
-18.7395
-19.0583
-19.4249
-19.8403
-20.3102
-20.8416
-21.4369
-22.0908
-22.7916
-23.5253
-24.2806
-25.0537
-25.8498
-26.6818
-27.5633
-28.5007
-29.4873
-30.5062
-31.5366
-32.5615
-33.5745
-34.5827
-35.6048
-36.6603
-37.7582
-38.8885
-40.0263
-41.1411
-42.2083
-43.2184
-44.1826
-45.1294
-46.0917
-47.0915
-48.13
-49.192
-50.2558
-51.2995
-50.565
-49.6173
-48.7616
-48.0331
-47.436
-46.9208
-46.4051
-45.8001
-45.0322
-44.0601
-42.8893
-41.5698
-40.1756
-38.7859
-37.4634
-36.2342
-35.0747
-33.9363
-32.7752
-31.5752
-30.351
-29.1373
-27.9757
-26.901
-25.9274
-25.0406
-24.213
-23.4228
-22.6666
-21.9596
-21.3242
-20.7741
-20.3028
-19.8906
-19.5139
-19.1536
-18.8017
-18.4652
-18.1643
-17.9222
-17.7526
-17.6509
-17.5997
-17.5759
-17.559
-17.5358
-17.5066
-17.4846
-17.491
-17.5489
-17.6774
-17.8835
-18.1575
-18.483
-18.8479
-19.2537
-19.7156
-20.253
-20.876
-21.5755
-22.3283
-23.1067
-23.888
-24.6631
-25.4438
-26.2608
-27.1483
-28.1252
-29.1791
-30.276
-31.374
-32.4386
-33.4553
-34.4409
-35.4394
-36.5008
-37.6523
-38.875
-40.1185
-41.3213
-42.4327
-43.4306
-44.3376
-45.216
-46.1399
-47.1572
-48.2631
-49.4211
-50.5906
-51.7422
-50.6849
-49.5693
-48.6129
-47.8936
-47.4553
-47.1969
-46.9599
-46.5842
-45.9386
-44.9419
-43.6066
-42.0352
-40.3645
-38.7397
-37.281
-36.0422
-34.9452
-33.8658
-32.7018
-31.4209
-30.0613
-28.6929
-27.3978
-26.2461
-25.2698
-24.4209
-23.6265
-22.8322
-22.0327
-21.2705
-20.6036
-20.0717
-19.656
-19.3118
-18.9918
-18.6584
-18.2929
-17.9097
-17.5554
-17.2839
-17.1306
-17.081
-17.0966
-17.1333
-17.1516
-17.1244
-17.0517
-16.9606
-16.8902
-16.8844
-16.9813
-17.1974
-17.5025
-17.852
-18.2129
-18.5874
-19.0134
-19.5418
-20.206
-20.9845
-21.8292
-22.685
-23.5053
-24.2651
-24.9866
-25.7389
-26.6052
-27.6393
-28.8099
-30.0447
-31.2601
-32.3853
-33.3816
-34.2807
-35.1835
-36.2119
-37.4438
-38.8319
-40.2692
-41.6331
-42.8203
-43.7734
-44.5332
-45.237
-46.0528
-47.0948
-48.3206
-49.6326
-50.9505
-52.2464
-50.6883
-49.2914
-48.1221
-47.349
-47.2152
-47.4424
-47.7143
-47.757
-47.3502
-46.3114
-44.6637
-42.6437
-40.4876
-38.4543
-36.7822
-35.6464
-34.7905
-33.9175
-32.7974
-31.3804
-29.7847
-28.1438
-26.6137
-25.3395
-24.4294
-23.7234
-23.0404
-22.2501
-21.3457
-20.4448
-19.6895
-19.2029
-18.9071
-18.6991
-18.49
-18.2106
-17.8103
-17.3135
-16.8283
-16.4764
-16.3605
-16.4181
-16.5643
-16.7183
-16.8108
-16.7795
-16.6243
-16.4077
-16.1976
-16.0727
-16.1147
-16.3841
-16.7845
-17.2056
-17.5592
-17.8479
-18.1648
-18.6361
-19.3724
-20.2989
-21.3151
-22.3154
-23.2105
-23.9229
-24.486
-25.0536
-25.8213
-26.9576
-28.3487
-29.8419
-31.2768
-32.5179
-33.4482
-34.1157
-34.7472
-35.6299
-37.0105
-38.718
-40.5254
-42.1995
-43.5447
-44.3943
-44.809
-45.0963
-45.6395
-46.7673
-48.2532
-49.8349
-51.3409
-52.7975
-50.4498
-48.6852
-47.0602
-45.8831
-46.4543
-47.6226
-48.7981
-49.5767
-49.6718
-48.5576
-46.257
-43.4483
-40.4337
-37.6491
-35.5115
-34.8478
-34.6608
-34.3258
-33.3208
-31.5977
-29.5738
-27.4358
-25.4618
-23.9094
-23.2959
-22.9937
-22.6098
-21.8329
-20.6546
-19.4104
-18.3893
-18.0605
-18.0329
-18.0888
-18.0907
-17.9376
-17.4679
-16.7018
-15.9102
-15.3303
-15.3414
-15.629
-16.0219
-16.393
-16.6496
-16.6143
-16.2866
-15.8464
-15.3835
-15.0218
-14.9217
-15.3832
-16.038
-16.6575
-17
-17.0688
-17.0949
-17.3497
-18.2661
-19.4851
-20.8247
-22.0983
-23.1801
-23.7965
-23.9801
-24.0809
-24.5076
-25.9099
-27.7413
-29.7239
-31.5732
-33.0988
-33.8935
-34.0031
-33.9495
-34.3315
-36.1064
-38.4604
-40.9737
-43.2394
-44.9825
-45.6411
-45.2679
-44.5867
-44.3837
-45.9234
-48.0472
-50.1453
-51.8016
-53.2708
-49.4411
-47.8768
-45.3526
-41.8991
-44.8335
-47.7923
-50.4531
-52.3802
-53.7347
-52.5122
-48.5817
-44.5495
-40.0486
-35.9126
-32.1186
-33.3632
-34.7446
-35.6993
-34.8789
-32.2489
-29.528
-26.4923
-23.7033
-21.128
-21.7146
-22.3826
-22.7457
-21.9948
-20.0594
-18.0557
-16.093
-16.485
-17.0395
-17.5574
-17.9154
-18.1217
-17.5535
-16.1277
-14.6882
-13.3342
-13.9251
-14.6892
-15.5122
-16.2336
-16.91
-16.8711
-16.1122
-15.3189
-14.4249
-13.5951
-12.9209
-14.1051
-15.3434
-16.5094
-16.8358
-16.3525
-15.6966
-15.1117
-16.7251
-18.4988
-20.4305
-22.1585
-23.8206
-24.2947
-23.5941
-22.6399
-21.79
-24.2449
-26.9168
-29.7985
-32.3367
-34.7325
-35.3262
-34.126
-32.525
-31.0274
-34.3689
-37.9732
-41.7788
-45.0317
-47.9817
-48.3737
-46.1698
-43.3882
-40.6179
-44.2377
-47.8773
-51.0912
-52.5311
-52.9568
-44.5901
-48.4503
-44.9826
-28.7159
-43.177
-48.3907
-53.1643
-56.008
-61.5081
-60.3662
-51.0527
-46.3259
-39.1383
-33.6836
-21.4702
-31.6821
-35.4432
-39.6296
-39.0432
-33.032
-29.9359
-25.1942
-21.6378
-13.7943
-20.0169
-22.2116
-24.4867
-23.8632
-19.5635
-16.6427
-10.4068
-14.6764
-16.0998
-17.2574
-17.9599
-19.4221
-18.8753
-15.5745
-13.3443
-8.53822
-12.2607
-13.6657
-15.1497
-16.1406
-18.2015
-18.1663
-15.9885
-14.9376
-13.3751
-11.9452
-8.24516
-12.7501
-14.7539
-17.5715
-17.8387
-15.8859
-14.197
-9.70894
-14.9541
-17.2859
-20.3306
-22.315
-26.173
-26.4855
-23.5744
-21.0497
-14.3141
-22.2682
-25.7914
-30.3683
-33.306
-38.9622
-39.3425
-34.8269
-30.9517
-20.7555
-32.2532
-37.1962
-43.3796
-47.2603
-54.6641
-54.8441
-47.9029
-42.1733
-27.6498
-42.5228
-48.3198
-54.5905
-54.7198
-47.9772
-50.4528
-51.3122
-52.1163
-52.861
-53.5435
-54.1617
-54.7148
-55.2026
-55.6256
-55.9849
-56.2816
-56.517
-56.6924
-56.8087
-56.8667
-50.5026
-51.3667
-52.1747
-52.9224
-53.6068
-54.2259
-54.7791
-55.2663
-55.6883
-56.0463
-56.3417
-56.5759
-56.7503
-56.8659
-56.9235
-50.6027
-51.4765
-52.2925
-53.0461
-53.7343
-54.3551
-54.9083
-55.3941
-55.8139
-56.1693
-56.4619
-56.6936
-56.8658
-56.9799
-57.0368
-50.7542
-51.6434
-52.4718
-53.2345
-53.928
-54.5511
-55.1037
-55.587
-56.0029
-56.3538
-56.6419
-56.8695
-57.0384
-57.1501
-57.2057
-50.9591
-51.8702
-52.7161
-53.4909
-54.1914
-54.8165
-55.3673
-55.8461
-56.2559
-56.5999
-56.8813
-57.1028
-57.2669
-57.3753
-57.4291
-51.2203
-52.1613
-53.0305
-53.8209
-54.5291
-55.1553
-55.702
-56.1733
-56.5736
-56.9076
-57.1794
-57.3925
-57.5499
-57.6537
-57.7052
-51.5421
-52.5235
-53.423
-54.232
-54.9479
-55.5726
-56.1113
-56.5703
-56.9565
-57.2763
-57.5349
-57.7368
-57.8854
-57.9832
-58.0316
-51.9309
-52.9667
-53.905
-54.7353
-55.4567
-56.0749
-56.599
-57.0391
-57.405
-57.7051
-57.9461
-58.1333
-58.2706
-58.3606
-58.4053
-52.3967
-53.5065
-54.4939
-55.3466
-56.0677
-56.6701
-57.1695
-57.5811
-57.9183
-58.1919
-58.41
-58.5785
-58.7017
-58.7823
-58.8222
-52.9548
-54.1676
-55.2164
-56.0881
-56.7965
-57.367
-57.8262
-58.1961
-58.4941
-58.7331
-58.9223
-59.0679
-59.174
-59.2434
-59.2778
-53.6289
-54.9917
-56.1148
-56.992
-57.662
-58.1742
-58.5706
-58.8815
-59.1276
-59.3231
-59.4772
-59.5955
-59.6819
-59.7384
-59.7664
-54.455
-56.0544
-57.2585
-58.1018
-58.6846
-59.0966
-59.3993
-59.63
-59.8104
-59.9534
-60.0665
-60.154
-60.2183
-60.2605
-60.2815
-55.492
-57.5114
-58.7618
-59.4702
-59.8765
-60.1272
-60.2988
-60.4273
-60.5292
-60.6123
-60.6804
-60.7346
-60.7753
-60.8026
-60.8164
-56.9274
-59.7359
-60.8059
-61.1394
-61.2225
-61.2362
-61.2401
-61.2493
-61.2651
-61.2852
-61.3068
-61.3273
-61.3446
-61.357
-61.3634
-59.9506
-63.6978
-63.5854
-63.0572
-62.6364
-62.3542
-62.1747
-62.0631
-61.995
-61.9551
-61.9331
-61.9221
-61.9174
-61.9158
-61.9155
-61.4163
-61.4165
-61.4178
-61.4219
-61.4317
-61.4519
-61.4897
-61.5567
-61.6721
-61.87
-62.2172
-62.8642
-64.2304
-67.8113
-80.2671
-61.8982
-61.9032
-61.9143
-61.9336
-61.9648
-62.0136
-62.0888
-62.2046
-62.3846
-62.6696
-63.1356
-63.9302
-65.3467
-67.8751
-71.2721
-62.3756
-62.3848
-62.4042
-62.4363
-62.4849
-62.5559
-62.6586
-62.8069
-63.0228
-63.3425
-63.8249
-64.5636
-65.6894
-67.3345
-69.7318
-62.8457
-62.8582
-62.8844
-62.9266
-62.9884
-63.0755
-63.1958
-63.3609
-63.5879
-63.9015
-64.3355
-64.9271
-65.6703
-66.2705
-64.7886
-63.3059
-63.3212
-63.3526
-63.4023
-63.4736
-63.571
-63.7007
-63.8709
-64.0917
-64.3757
-64.7359
-65.1841
-65.7492
-66.6513
-69.4999
-63.7546
-63.7718
-63.8071
-63.8621
-63.9396
-64.0431
-64.1765
-64.3444
-64.5504
-64.796
-65.0741
-65.359
-65.5931
-65.6789
-65.5352
-64.1903
-64.2089
-64.2468
-64.3054
-64.3868
-64.4933
-64.6272
-64.79
-64.9807
-65.1928
-65.4064
-65.5681
-65.539
-64.8645
-61.4859
-64.6119
-64.6315
-64.6712
-64.732
-64.8156
-64.9234
-65.0566
-65.2148
-65.3948
-65.5879
-65.7735
-65.9083
-65.932
-65.9268
-67.575
-65.0189
-65.039
-65.0798
-65.1419
-65.2266
-65.3349
-65.4673
-65.623
-65.7987
-65.9875
-66.1746
-66.3244
-66.3443
-65.8395
-62.355
-65.4107
-65.4312
-65.4724
-65.5352
-65.6203
-65.7287
-65.8606
-66.0156
-66.1921
-66.3879
-66.6003
-66.8292
-67.1199
-67.8202
-71.3748
-65.7872
-65.8078
-65.8492
-65.912
-65.997
-66.105
-66.2365
-66.3916
-66.5709
-66.7762
-67.0131
-67.2898
-67.6101
-67.8171
-66.2358
-66.1482
-66.1687
-66.2099
-66.2724
-66.3568
-66.4639
-66.5945
-66.7493
-66.9301
-67.142
-67.3968
-67.7188
-68.1779
-69.0545
-72.0207
-66.4938
-66.5141
-66.5549
-66.6166
-66.6999
-66.8056
-66.9344
-67.0872
-67.2663
-67.4774
-67.7326
-68.051
-68.4547
-68.8391
-67.877
-66.824
-66.844
-66.8841
-66.9448
-67.0266
-67.1302
-67.2561
-67.4051
-67.5789
-67.7817
-68.0231
-68.3224
-68.7439
-69.5574
-72.1843
-67.1392
-67.1588
-67.198
-67.2574
-67.3372
-67.4381
-67.5604
-67.7042
-67.8699
-68.0586
-68.2719
-68.5075
-68.7598
-69.0147
-69.231
-67.4395
-67.4586
-67.4969
-67.5547
-67.6323
-67.7302
-67.8483
-67.9863
-68.1434
-68.3177
-68.5039
-68.6795
-68.7727
-68.4972
-66.4455
-67.7253
-67.7439
-67.7811
-67.8371
-67.9124
-68.007
-68.121
-68.2535
-68.4033
-68.568
-68.7418
-68.9072
-69.0407
-69.2117
-70.5164
-67.997
-68.015
-68.051
-68.1052
-68.178
-68.2694
-68.3793
-68.507
-68.6515
-68.8114
-68.984
-69.1555
-69.2817
-69.1373
-67.2472
-68.2549
-68.2723
-68.3071
-68.3595
-68.4297
-68.5178
-68.6237
-68.747
-68.8873
-69.0456
-69.2253
-69.4337
-69.7096
-70.2736
-72.5599
-68.4995
-68.5162
-68.5498
-68.6003
-68.6679
-68.7527
-68.8547
-68.9735
-69.1092
-69.2643
-69.4454
-69.6633
-69.9364
-70.2123
-69.6016
-68.7311
-68.7472
-68.7795
-68.8281
-68.8932
-68.9747
-69.0725
-69.1863
-69.3161
-69.4644
-69.6384
-69.8529
-70.1604
-70.7649
-72.674
-68.9502
-68.9657
-68.9968
-69.0435
-69.106
-69.1842
-69.2777
-69.3861
-69.5086
-69.6462
-69.8016
-69.9765
-70.1769
-70.4099
-70.6536
-69.1572
-69.1721
-69.202
-69.2469
-69.3069
-69.3819
-69.4713
-69.5742
-69.6892
-69.8151
-69.9497
-70.0809
-70.1698
-70.046
-68.8205
-69.3524
-69.3668
-69.3956
-69.4388
-69.4964
-69.5684
-69.654
-69.752
-69.8606
-69.9774
-70.0987
-70.2129
-70.3092
-70.4456
-71.3344
-69.5364
-69.5502
-69.5779
-69.6195
-69.675
-69.7442
-69.8266
-69.9207
-70.0247
-70.1361
-70.251
-70.3559
-70.4199
-70.3211
-69.304
-69.7094
-69.7227
-69.7494
-69.7895
-69.8431
-69.9099
-69.9894
-70.0807
-70.182
-70.2919
-70.4087
-70.5257
-70.6424
-70.8329
-71.8057
-69.8718
-69.8847
-69.9104
-69.9491
-70.0008
-70.0655
-70.1427
-70.2318
-70.3317
-70.4425
-70.5647
-70.694
-70.8127
-70.7996
-69.7812
-70.0239
-70.0363
-70.0612
-70.0986
-70.1486
-70.2113
-70.2864
-70.3735
-70.4723
-70.5845
-70.7143
-70.8682
-71.0734
-71.4629
-72.8689
-70.1661
-70.1781
-70.2021
-70.2382
-70.2866
-70.3472
-70.4202
-70.5051
-70.6022
-70.7138
-70.8457
-71.0052
-71.2051
-71.4187
-71.1503
-70.2986
-70.3101
-70.3333
-70.3682
-70.4149
-70.4736
-70.5442
-70.6264
-70.7204
-70.8285
-70.9563
-71.1125
-71.3263
-71.7075
-72.7945
-70.4217
-70.4328
-70.4552
-70.4888
-70.5339
-70.5906
-70.6585
-70.7375
-70.8273
-70.929
-71.0456
-71.1782
-71.3302
-71.5048
-71.6811
-70.5356
-70.5464
-70.568
-70.6005
-70.644
-70.6985
-70.7638
-70.8393
-70.9242
-71.0186
-71.1223
-71.2287
-71.3176
-71.2991
-70.7086
-70.6408
-70.6512
-70.672
-70.7033
-70.7453
-70.7978
-70.8605
-70.9327
-71.0131
-71.1011
-71.1955
-71.29
-71.3784
-71.4891
-71.9767
-70.7373
-70.7474
-70.7675
-70.7977
-70.8382
-70.8888
-70.9492
-71.0184
-71.0952
-71.1786
-71.2673
-71.3538
-71.4227
-71.4157
-70.9695
-70.8256
-70.8353
-70.8547
-70.8839
-70.923
-70.9719
-71.0303
-71.0971
-71.1712
-71.252
-71.3391
-71.4282
-71.5187
-71.6458
-72.1405
-70.9057
-70.9151
-70.9339
-70.9622
-71
-71.0474
-71.1039
-71.1687
-71.2409
-71.3204
-71.4079
-71.5
-71.5882
-71.6192
-71.2037
-70.9779
-70.987
-71.0053
-71.0327
-71.0694
-71.1154
-71.1702
-71.2334
-71.304
-71.3828
-71.472
-71.5729
-71.6966
-71.9009
-72.5466
-71.0424
-71.0513
-71.069
-71.0957
-71.1313
-71.176
-71.2294
-71.2909
-71.3599
-71.4375
-71.5265
-71.6284
-71.748
-71.8746
-71.8062
-71.0994
-71.1081
-71.1253
-71.1513
-71.186
-71.2295
-71.2814
-71.3412
-71.4084
-71.4838
-71.5703
-71.6701
-71.7936
-71.9821
-72.4388
-71.1491
-71.1575
-71.1743
-71.1997
-71.2335
-71.2759
-71.3264
-71.3845
-71.4495
-71.522
-71.6036
-71.6936
-71.793
-71.9017
-72.0048
-71.1916
-71.1998
-71.2163
-71.241
-71.2741
-71.3155
-71.3648
-71.4212
-71.484
-71.5531
-71.6294
-71.7092
-71.7848
-71.8238
-71.6605
-71.227
-71.235
-71.2512
-71.2755
-71.3079
-71.3484
-71.3966
-71.4516
-71.5125
-71.5789
-71.6512
-71.7262
-71.8012
-71.8847
-72.0851
-71.2554
-71.2633
-71.2792
-71.3032
-71.3351
-71.375
-71.4223
-71.4761
-71.5355
-71.5999
-71.6698
-71.7416
-71.8107
-71.8628
-71.8033
-71.2769
-71.2847
-71.3005
-71.3242
-71.3558
-71.3951
-71.4418
-71.495
-71.5534
-71.6168
-71.6856
-71.7572
-71.8311
-71.9167
-72.0874
-71.2916
-71.2994
-71.315
-71.3386
-71.37
-71.4091
-71.4555
-71.5082
-71.5662
-71.6293
-71.6979
-71.7696
-71.8424
-71.9101
-71.9193
-71.2994
-71.3072
-71.3229
-71.3464
-71.3777
-71.4168
-71.4632
-71.516
-71.5741
-71.6374
-71.7066
-71.7796
-71.8563
-71.9425
-72.0716
-71.3005
-71.3083
-71.324
-71.3476
-71.3791
-71.4184
-71.465
-71.5182
-71.5768
-71.6409
-71.7112
-71.7854
-71.8626
-71.9437
-72.0361
-71.2947
-71.3026
-71.3185
-71.3423
-71.3741
-71.4137
-71.4609
-71.5146
-71.5742
-71.6395
-71.7115
-71.7877
-71.8653
-71.9353
-71.956
-71.2821
-71.2901
-71.3062
-71.3303
-71.3625
-71.4027
-71.4506
-71.5053
-71.566
-71.633
-71.7074
-71.7874
-71.8722
-71.9597
-72.0355
-71.2626
-71.2707
-71.287
-71.3116
-71.3443
-71.3853
-71.434
-71.4898
-71.5519
-71.6207
-71.6978
-71.7824
-71.8764
-71.9906
-72.1859
-71.236
-71.2443
-71.2609
-71.286
-71.3194
-71.3612
-71.411
-71.4681
-71.5317
-71.6022
-71.6816
-71.7691
-71.8655
-71.9636
-71.9763
-71.2022
-71.2107
-71.2278
-71.2535
-71.2877
-71.3305
-71.3815
-71.4399
-71.505
-71.5771
-71.6581
-71.7482
-71.8525
-71.9945
-72.3077
-71.1612
-71.1699
-71.1875
-71.2138
-71.249
-71.293
-71.3454
-71.4053
-71.4719
-71.5453
-71.6269
-71.7157
-71.8123
-71.9048
-71.8423
-71.1127
-71.1217
-71.1398
-71.1669
-71.2032
-71.2486
-71.3025
-71.3642
-71.4325
-71.5072
-71.5891
-71.6764
-71.774
-71.9213
-72.3844
-71.0565
-71.0658
-71.0845
-71.1126
-71.1501
-71.197
-71.2528
-71.3165
-71.3871
-71.4637
-71.5459
-71.6283
-71.7001
-71.717
-71.3934
-70.9925
-71.0021
-71.0215
-71.0505
-71.0894
-71.138
-71.196
-71.2623
-71.3359
-71.4158
-71.5012
-71.5859
-71.6634
-71.7476
-72.0691
-70.9204
-70.9304
-70.9504
-70.9806
-71.0209
-71.0714
-71.1318
-71.2012
-71.2787
-71.3636
-71.4554
-71.5471
-71.621
-71.6118
-71.2012
-70.84
-70.8504
-70.8711
-70.9024
-70.9443
-70.9969
-71.0599
-71.1327
-71.2147
-71.3061
-71.4083
-71.5188
-71.6354
-71.7531
-71.8519
-70.751
-70.7618
-70.7833
-70.8158
-70.8593
-70.9139
-70.9796
-71.0559
-71.1425
-71.2407
-71.3538
-71.4848
-71.6481
-71.9058
-72.5898
-70.6532
-70.6643
-70.6867
-70.7203
-70.7654
-70.8222
-70.8905
-70.97
-71.0607
-71.1644
-71.2852
-71.4268
-71.5943
-71.7608
-71.5895
-70.5463
-70.5578
-70.5809
-70.6158
-70.6625
-70.7213
-70.792
-70.8744
-70.9683
-71.0757
-71.2008
-71.3492
-71.54
-71.849
-72.7205
-70.4299
-70.4419
-70.4658
-70.5018
-70.5502
-70.6109
-70.6839
-70.7688
-70.8651
-70.974
-71.0986
-71.2407
-71.4027
-71.5448
-71.2035
-70.3039
-70.3163
-70.341
-70.3782
-70.4282
-70.4909
-70.5662
-70.6533
-70.7516
-70.861
-70.9827
-71.1167
-71.2782
-71.5747
-72.7397
-70.168
-70.1807
-70.2063
-70.2447
-70.2963
-70.361
-70.4386
-70.5283
-70.6288
-70.7389
-70.8566
-70.9719
-71.059
-71
-70.0371
-70.0219
-70.035
-70.0613
-70.101
-70.1541
-70.2209
-70.3011
-70.3938
-70.4977
-70.611
-70.7307
-70.8452
-70.9403
-71.0512
-71.751
-69.8652
-69.8787
-69.9058
-69.9467
-70.0015
-70.0705
-70.1534
-70.2497
-70.3583
-70.4782
-70.6068
-70.7303
-70.8096
-70.6917
-69.6301
-69.6978
-69.7117
-69.7396
-69.7816
-69.8381
-69.9092
-69.9949
-70.0951
-70.2095
-70.3389
-70.4848
-70.6446
-70.8146
-70.986
-71.1301
-69.5194
-69.5336
-69.5622
-69.6054
-69.6634
-69.7365
-69.8249
-69.9288
-70.0488
-70.1876
-70.3515
-70.5502
-70.8177
-71.2977
-72.7489
-69.3297
-69.3443
-69.3736
-69.4178
-69.4771
-69.552
-69.6426
-69.7494
-69.8733
-70.0183
-70.1925
-70.4062
-70.6722
-70.9334
-70.4614
-69.1285
-69.1434
-69.1734
-69.2185
-69.2791
-69.3554
-69.4476
-69.556
-69.6816
-69.8282
-70.0044
-70.2244
-70.529
-71.0764
-72.7977
-68.9155
-68.9308
-68.9614
-69.0074
-69.0691
-69.1466
-69.2399
-69.3489
-69.4738
-69.6171
-69.7844
-69.9823
-70.2162
-70.4024
-69.5935
-68.6906
-68.7062
-68.7374
-68.7843
-68.8471
-68.9257
-69.0198
-69.1287
-69.2516
-69.3886
-69.5416
-69.7134
-69.9354
-70.4179
-72.6009
-68.4535
-68.4694
-68.5013
-68.5492
-68.6131
-68.6929
-68.7879
-68.897
-69.018
-69.1486
-69.2841
-69.408
-69.4725
-69.2509
-67.2821
-68.2039
-68.2202
-68.2528
-68.3018
-68.367
-68.4483
-68.5448
-68.6549
-68.7762
-68.9047
-69.0332
-69.1423
-69.2073
-69.2955
-70.4754
-67.9417
-67.9584
-67.9919
-68.042
-68.1088
-68.192
-68.2907
-68.4034
-68.5276
-68.6602
-68.7941
-68.9056
-68.925
-68.5804
-66.5329
-67.6665
-67.6837
-67.7181
-67.7696
-67.8382
-67.9237
-68.0253
-68.1418
-68.2718
-68.4143
-68.5691
-68.7312
-68.8942
-69.0463
-69.1607
-67.3781
-67.3958
-67.4312
-67.4842
-67.555
-67.6431
-67.7481
-67.8691
-68.0056
-68.1594
-68.3373
-68.5547
-68.87
-69.5367
-71.8864
-67.0761
-67.0943
-67.1308
-67.1856
-67.2586
-67.3497
-67.4584
-67.5838
-67.7257
-67.8871
-68.0766
-68.3085
-68.6006
-68.8566
-67.8641
-66.7601
-66.7789
-66.8165
-66.8731
-66.9487
-67.043
-67.1555
-67.285
-67.4308
-67.5949
-67.785
-68.0188
-68.3554
-69.0418
-71.5689
-66.4297
-66.4491
-66.4879
-66.5465
-66.6248
-66.7227
-66.8394
-66.9731
-67.1217
-67.284
-67.4614
-67.6562
-67.8661
-67.9471
-66.4233
-66.0846
-66.1045
-66.1445
-66.205
-66.2862
-66.3882
-66.5099
-66.6491
-66.8016
-66.9621
-67.1242
-67.2815
-67.4654
-67.9652
-70.861
-65.7244
-65.7447
-65.7858
-65.8482
-65.9324
-66.0388
-66.1669
-66.3139
-66.4744
-66.6386
-66.7888
-66.8868
-66.8443
-66.3176
-63.2313
-65.3487
-65.3694
-65.4112
-65.4751
-65.5621
-65.6735
-65.8092
-65.9676
-66.1431
-66.3244
-66.4883
-66.5879
-66.5586
-66.446
-67.5719
-64.9575
-64.9782
-65.0202
-65.0848
-65.1741
-65.2901
-65.4345
-65.6075
-65.8063
-66.0217
-66.2309
-66.377
-66.3297
-65.7128
-62.9326
-64.5507
-64.5709
-64.6122
-64.6766
-64.7666
-64.8859
-65.0385
-65.2279
-65.4564
-65.7228
-66.016
-66.2989
-66.4954
-66.4803
-66.1587
-64.1286
-64.1478
-64.1873
-64.2494
-64.3379
-64.4577
-64.6155
-64.8192
-65.0787
-65.4049
-65.8068
-66.2794
-66.807
-67.459
-69.1784
-63.6921
-63.7095
-63.7456
-63.8031
-63.8865
-64.0022
-64.1592
-64.3702
-64.6532
-65.0341
-65.547
-66.2202
-67.0314
-67.695
-66.7515
-63.2423
-63.257
-63.2879
-63.3378
-63.4117
-63.5169
-63.6641
-63.8695
-64.1583
-64.5713
-65.1744
-66.0638
-67.3572
-69.0454
-70.3431
-62.7811
-62.7922
-62.8159
-62.855
-62.9144
-63.0014
-63.1272
-63.3092
-63.5757
-63.9762
-64.6017
-65.6254
-67.4078
-70.6656
-76.1711
-62.311
-62.3176
-62.3322
-62.3572
-62.3969
-62.458
-62.5501
-62.6886
-62.8986
-63.2245
-63.751
-64.6588
-66.4329
-70.7232
-84.5191
-84.71
-70.8659
-66.5137
-64.7146
-63.8041
-63.2844
-62.9678
-62.7671
-62.6369
-62.5516
-62.496
-62.4604
-62.4383
-62.4257
-62.4199
-76.8625
-70.7897
-67.4018
-65.6027
-64.5932
-63.9885
-63.6072
-63.3569
-63.188
-63.0723
-62.9931
-62.9395
-62.9044
-62.8833
-62.8734
-70.0077
-68.848
-67.1856
-65.9409
-65.1002
-64.537
-64.1543
-63.8887
-63.7008
-63.5668
-63.4715
-63.4048
-63.3598
-63.3322
-63.319
-67.2127
-67.2542
-66.6783
-65.9971
-65.4132
-64.9597
-64.6191
-64.3648
-64.1749
-64.0334
-63.9291
-63.8541
-63.8023
-63.7699
-63.7543
-64.4043
-66.0881
-66.2433
-65.9841
-65.6346
-65.3034
-65.0226
-64.7949
-64.614
-64.4731
-64.3657
-64.2862
-64.2304
-64.1948
-64.1776
-66.4671
-65.9824
-66.095
-66.0322
-65.8422
-65.6115
-65.3882
-65.1906
-65.0241
-64.8886
-64.7819
-64.7011
-64.6432
-64.606
-64.5878
-62.8575
-65.4607
-66.0675
-66.167
-66.0769
-65.9141
-65.7344
-65.5632
-65.4113
-65.2831
-65.1793
-65.0991
-65.0408
-65.0028
-64.9842
-67.6318
-66.3243
-66.3913
-66.4318
-66.3609
-66.2278
-66.0736
-65.9207
-65.7808
-65.6596
-65.5595
-65.4809
-65.4231
-65.3852
-65.3664
-63.155
-66.2322
-66.7326
-66.7723
-66.6869
-66.5555
-66.4104
-66.2676
-66.1358