/*--------------------------------*- C++ -*----------------------------------*\
| =========                 |                                                 |
| \\      /  F ield         | OpenFOAM: The Open Source CFD Toolbox           |
|  \\    /   O peration     | Version:  5.x                                   |
|   \\  /    A nd           | Web:      www.OpenFOAM.org                      |
|    \\/     M anipulation  |                                                 |
\*---------------------------------------------------------------------------*/
FoamFile
{
    version     2.0;
    format      ascii;
    class       volScalarField;
    location    "1.1";
    object      T;
}
// * * * * * * * * * * * * * * * * * * * * * * * * * * * * * * * * * * * * * //

dimensions      [0 0 0 1 0 0 0];

internalField   nonuniform List<scalar> 
6300
(
322.721
322.162
321.605
321.049
320.495
319.943
319.395
318.85
318.31
317.774
317.244
316.719
316.201
315.69
315.187
322.72
322.162
321.604
321.047
320.492
319.94
319.391
318.846
318.305
317.769
317.238
316.713
316.194
315.683
315.179
322.72
322.16
321.601
321.043
320.488
319.934
319.384
318.838
318.295
317.758
317.226
316.7
316.181
315.668
315.164
322.719
322.158
321.597
321.038
320.48
319.925
319.373
318.825
318.281
317.742
317.208
316.681
316.16
315.646
315.14
322.718
322.154
321.592
321.03
320.47
319.913
319.359
318.808
318.262
317.721
317.185
316.655
316.132
315.616
315.109
322.717
322.15
321.585
321.021
320.458
319.898
319.341
318.787
318.238
317.694
317.155
316.623
316.097
315.579
315.069
322.715
322.146
321.577
321.009
320.444
319.88
319.32
318.762
318.21
317.662
317.119
316.583
316.055
315.534
315.021
322.713
322.14
321.568
320.996
320.427
319.859
319.295
318.733
318.176
317.624
317.077
316.537
316.004
315.48
314.965
322.711
322.134
321.557
320.982
320.408
319.836
319.266
318.7
318.138
317.58
317.029
316.483
315.946
315.417
314.899
322.709
322.127
321.546
320.966
320.387
319.81
319.235
318.663
318.095
317.532
316.973
316.422
315.879
315.345
314.822
322.707
322.12
321.534
320.948
320.364
319.781
319.201
318.623
318.048
317.477
316.912
316.352
315.802
315.261
314.734
322.704
322.112
321.52
320.93
320.34
319.751
319.164
318.579
317.997
317.418
316.843
316.275
315.714
315.165
314.632
322.701
322.104
321.507
320.91
320.314
319.719
319.125
318.533
317.943
317.354
316.77
316.189
315.616
315.054
314.51
322.698
322.095
321.492
320.89
320.288
319.686
319.085
318.485
317.886
317.288
316.691
316.097
315.506
314.924
314.362
322.696
322.087
321.478
320.869
320.261
319.653
319.045
318.436
317.828
317.22
316.611
316
315.388
314.774
314.169
314.733
314.325
313.924
313.529
313.14
312.758
312.382
312.014
311.652
311.298
310.952
310.613
310.281
309.958
309.643
309.335
309.036
308.744
308.461
308.185
307.917
307.657
307.404
307.158
306.919
306.687
306.461
306.241
306.027
305.819
305.616
305.417
305.224
305.034
304.848
304.666
304.487
304.311
304.137
303.965
303.795
303.627
303.46
303.294
303.128
302.963
302.797
302.631
302.464
302.296
302.127
301.955
301.782
301.606
301.427
301.245
301.06
300.871
300.677
300.479
300.276
300.068
299.855
299.635
299.41
299.179
298.941
298.696
298.444
298.185
297.919
297.646
297.365
297.076
296.78
296.475
296.163
295.843
295.515
295.179
294.835
294.483
294.124
293.757
293.382
293
292.61
292.214
291.81
291.4
314.724
314.317
313.915
313.52
313.131
312.748
312.372
312.004
311.642
311.288
310.941
310.602
310.27
309.947
309.631
309.324
309.024
308.733
308.45
308.174
307.906
307.646
307.393
307.148
306.909
306.677
306.452
306.233
306.019
305.812
305.609
305.411
305.218
305.029
304.843
304.662
304.483
304.307
304.134
303.963
303.793
303.625
303.459
303.293
303.128
302.963
302.798
302.632
302.466
302.298
302.129
301.958
301.785
301.61
301.432
301.25
301.065
300.877
300.684
300.486
300.283
300.076
299.863
299.644
299.419
299.188
298.95
298.706
298.454
298.196
297.93
297.657
297.376
297.087
296.791
296.487
296.174
295.854
295.526
295.19
294.846
294.494
294.135
293.768
293.393
293.01
292.62
292.223
291.82
291.409
314.708
314.3
313.898
313.502
313.112
312.729
312.353
311.983
311.621
311.266
310.919
310.58
310.248
309.924
309.608
309.301
309.002
308.71
308.427
308.152
307.885
307.625
307.373
307.128
306.89
306.659
306.435
306.216
306.004
305.797
305.595
305.398
305.206
305.018
304.833
304.653
304.475
304.3
304.128
303.957
303.789
303.622
303.456
303.291
303.127
302.963
302.799
302.634
302.469
302.302
302.134
301.964
301.792
301.618
301.441
301.26
301.076
300.888
300.696
300.5
300.298
300.091
299.879
299.661
299.437
299.206
298.969
298.725
298.474
298.216
297.951
297.678
297.398
297.109
296.813
296.509
296.197
295.877
295.549
295.213
294.869
294.517
294.157
293.789
293.414
293.031
292.641
292.243
291.839
291.427
314.684
314.275
313.872
313.475
313.084
312.7
312.323
311.953
311.59
311.234
310.886
310.546
310.214
309.89
309.574
309.267
308.967
308.676
308.394
308.119
307.852
307.593
307.342
307.098
306.862
306.632
306.408
306.191
305.98
305.775
305.574
305.379
305.188
305.001
304.818
304.639
304.463
304.289
304.118
303.95
303.783
303.617
303.453
303.289
303.126
302.963
302.801
302.637
302.473
302.308
302.142
301.973
301.803
301.63
301.454
301.275
301.093
300.906
300.716
300.52
300.32
300.114
299.903
299.686
299.463
299.234
298.998
298.755
298.505
298.247
297.983
297.71
297.43
297.142
296.846
296.543
296.231
295.911
295.583
295.246
294.902
294.55
294.189
293.821
293.446
293.062
292.671
292.273
291.867
291.455
314.651
314.241
313.837
313.439
313.047
312.662
312.284
311.913
311.548
311.192
310.843
310.502
310.169
309.844
309.528
309.221
308.921
308.631
308.348
308.075
307.809
307.551
307.301
307.058
306.823
306.595
306.373
306.158
305.949
305.745
305.547
305.353
305.164
304.98
304.799
304.621
304.447
304.275
304.106
303.939
303.774
303.61
303.448
303.286
303.125
302.964
302.803
302.642
302.48
302.316
302.152
301.985
301.817
301.646
301.472
301.295
301.115
300.93
300.742
300.548
300.349
300.146
299.936
299.721
299.499
299.271
299.036
298.794
298.545
298.289
298.025
297.754
297.474
297.187
296.891
296.588
296.276
295.956
295.628
295.291
294.947
294.594
294.233
293.865
293.488
293.104
292.712
292.313
291.906
291.492
314.61
314.198
313.793
313.393
313.001
312.614
312.235
311.862
311.496
311.138
310.788
310.446
310.112
309.787
309.47
309.162
308.863
308.573
308.292
308.018
307.754
307.497
307.249
307.008
306.775
306.549
306.329
306.116
305.91
305.708
305.512
305.321
305.135
304.952
304.774
304.599
304.427
304.258
304.091
303.926
303.763
303.602
303.442
303.282
303.123
302.965
302.806
302.647
302.487
302.326
302.164
302.001
301.835
301.666
301.495
301.321
301.143
300.96
300.774
300.583
300.386
300.185
299.977
299.764
299.544
299.317
299.084
298.844
298.596
298.341
298.079
297.808
297.529
297.242
296.948
296.644
296.333
296.013
295.685
295.348
295.003
294.65
294.288
293.919
293.542
293.157
292.764
292.363
291.955
291.539
314.56
314.147
313.74
313.339
312.945
312.557
312.176
311.801
311.433
311.073
310.721
310.377
310.042
309.716
309.4
309.092
308.793
308.503
308.223
307.95
307.687
307.432
307.186
306.947
306.716
306.493
306.276
306.066
305.862
305.664
305.471
305.283
305.099
304.92
304.744
304.572
304.403
304.236
304.073
303.911
303.751
303.592
303.435
303.278
303.122
302.966
302.809
302.653
302.496
302.338
302.179
302.019
301.856
301.69
301.522
301.351
301.176
300.997
300.813
300.625
300.431
300.232
300.027
299.816
299.598
299.374
299.143
298.904
298.658
298.405
298.143
297.873
297.596
297.31
297.016
296.713
296.402
296.082
295.754
295.417
295.071
294.717
294.355
293.985
293.607
293.22
292.826
292.424
292.014
291.596
314.501
314.086
313.678
313.276
312.881
312.491
312.107
311.73
311.36
310.997
310.643
310.297
309.96
309.633
309.316
309.008
308.71
308.421
308.141
307.87
307.608
307.356
307.111
306.876
306.648
306.427
306.214
306.007
305.806
305.612
305.422
305.238
305.058
304.882
304.71
304.541
304.375
304.212
304.051
303.893
303.736
303.581
303.426
303.273
303.119
302.966
302.813
302.66
302.507
302.352
302.197
302.039
301.88
301.719
301.554
301.386
301.215
301.039
300.859
300.674
300.484
300.287
300.085
299.877
299.662
299.44
299.211
298.975
298.731
298.479
298.219
297.951
297.674
297.389
297.095
296.794
296.483
296.163
295.835
295.497
295.151
294.796
294.433
294.062
293.683
293.295
292.9
292.496
292.084
291.663
314.433
314.017
313.607
313.204
312.808
312.416
312.03
311.65
311.276
310.91
310.552
310.203
309.865
309.537
309.219
308.912
308.614
308.325
308.046
307.777
307.517
307.266
307.025
306.793
306.568
306.352
306.142
305.939
305.743
305.552
305.367
305.187
305.011
304.839
304.67
304.505
304.343
304.184
304.027
303.872
303.719
303.568
303.417
303.267
303.117
302.967
302.817
302.668
302.518
302.368
302.216
302.063
301.908
301.751
301.591
301.427
301.26
301.089
300.913
300.731
300.544
300.351
300.152
299.947
299.735
299.516
299.29
299.057
298.815
298.565
298.307
298.039
297.764
297.48
297.187
296.886
296.576
296.257
295.928
295.59
295.243
294.887
294.522
294.15
293.77
293.382
292.985
292.58
292.165
291.742
314.354
313.937
313.527
313.124
312.727
312.334
311.945
311.56
311.181
310.81
310.447
310.095
309.754
309.425
309.108
308.801
308.504
308.216
307.938
307.67
307.412
307.164
306.926
306.698
306.478
306.266
306.061
305.862
305.67
305.485
305.304
305.129
304.958
304.791
304.627
304.466
304.307
304.152
304
303.849
303.701
303.554
303.407
303.26
303.114
302.968
302.822
302.676
302.53
302.384
302.238
302.09
301.94
301.787
301.632
301.473
301.311
301.144
300.973
300.796
300.614
300.424
300.228
300.026
299.817
299.602
299.38
299.15
298.911
298.663
298.406
298.14
297.866
297.583
297.292
296.992
296.683
296.365
296.035
295.696
295.347
294.989
294.623
294.25
293.869
293.481
293.083
292.676
292.26
291.833
314.264
313.847
313.438
313.036
312.64
312.246
311.853
311.463
311.077
310.697
310.328
309.97
309.627
309.298
308.981
308.676
308.381
308.094
307.816
307.549
307.293
307.048
306.814
306.591
306.377
306.17
305.97
305.776
305.589
305.409
305.235
305.066
304.9
304.738
304.579
304.422
304.268
304.117
303.969
303.824
303.681
303.539
303.396
303.254
303.111
302.968
302.825
302.684
302.543
302.402
302.261
302.119
301.975
301.827
301.677
301.524
301.367
301.207
301.042
300.87
300.692
300.506
300.314
300.115
299.909
299.698
299.48
299.255
299.02
298.775
298.519
298.254
297.979
297.697
297.408
297.111
296.804
296.487
296.157
295.816
295.463
295.102
294.734
294.36
293.98
293.592
293.195
292.787
292.368
291.938
314.16
313.744
313.338
312.942
312.549
312.155
311.759
311.36
310.963
310.571
310.191
309.826
309.48
309.151
308.839
308.538
308.245
307.959
307.68
307.412
307.157
306.915
306.688
306.472
306.265
306.065
305.87
305.681
305.499
305.325
305.158
304.997
304.838
304.682
304.527
304.374
304.223
304.077
303.935
303.796
303.66
303.524
303.386
303.248
303.108
302.967
302.828
302.69
302.555
302.42
302.287
302.152
302.014
301.872
301.727
301.579
301.429
301.277
301.119
300.954
300.78
300.598
300.409
300.212
300.01
299.804
299.592
299.373
299.143
298.901
298.646
298.379
298.104
297.822
297.535
297.243
296.941
296.626
296.296
295.951
295.593
295.225
294.853
294.478
294.101
293.717
293.322
292.913
292.491
292.057
314.037
313.626
313.226
312.842
312.461
312.068
311.667
311.255
310.841
310.427
310.032
309.656
309.308
308.982
308.68
308.39
308.099
307.812
307.527
307.257
307.001
306.764
306.543
306.34
306.145
305.951
305.762
305.575
305.398
305.23
305.074
304.924
304.773
304.623
304.472
304.322
304.173
304.031
303.895
303.766
303.639
303.51
303.379
303.243
303.105
302.965
302.828
302.694
302.564
302.438
302.314
302.189
302.058
301.922
301.78
301.638
301.495
301.353
301.206
301.049
300.882
300.702
300.513
300.315
300.117
299.916
299.715
299.507
299.283
299.045
298.788
298.519
298.236
297.954
297.67
297.388
297.097
296.786
296.456
296.103
295.736
295.354
294.975
294.599
294.232
293.859
293.467
293.059
292.631
292.195
313.887
313.495
313.089
312.739
312.391
311.991
311.594
311.151
310.721
310.255
309.846
309.445
309.104
308.778
308.505
308.243
307.949
307.663
307.354
307.082
306.817
306.59
306.375
306.195
306.023
305.833
305.65
305.454
305.283
305.12
304.982
304.851
304.708
304.567
304.415
304.269
304.113
303.976
303.844
303.731
303.622
303.499
303.377
303.241
303.106
302.959
302.825
302.69
302.57
302.45
302.343
302.235
302.108
301.979
301.833
301.698
301.561
301.437
301.309
301.158
301
300.817
300.631
300.42
300.226
300.027
299.849
299.664
299.445
299.215
298.948
298.677
298.369
298.088
297.801
297.546
297.283
296.973
296.651
296.277
295.9
295.477
295.094
294.707
294.371
294.03
293.633
293.232
292.782
292.357
313.681
313.381
312.874
312.632
312.395
311.912
311.588
311.026
310.655
310.001
309.649
309.15
308.877
308.498
308.315
308.14
307.787
307.549
307.127
306.898
306.576
306.399
306.156
306.039
305.927
305.705
305.556
305.297
305.159
304.971
304.881
304.798
304.637
304.529
304.349
304.23
304.025
303.915
303.766
303.693
303.623
303.489
303.396
303.236
303.127
302.933
302.824
302.666
302.575
302.443
302.376
302.306
302.163
302.06
301.87
301.763
301.606
301.526
301.444
301.277
301.156
300.938
300.784
300.502
300.342
300.109
299.992
299.87
299.62
299.44
299.114
298.885
298.465
298.23
297.885
297.714
297.539
297.176
296.919
296.453
296.131
295.542
295.217
294.744
294.514
294.283
293.805
293.478
292.895
292.566
290.941
290.432
289.915
289.39
288.858
288.319
287.775
287.225
286.671
286.112
285.551
284.987
284.421
283.853
283.284
290.95
290.441
289.923
289.397
288.864
288.325
287.78
287.229
286.674
286.116
285.554
284.989
284.422
283.854
283.285
290.968
290.457
289.938
289.411
288.877
288.336
287.79
287.238
286.682
286.122
285.559
284.993
284.425
283.855
283.285
290.994
290.482
289.961
289.432
288.896
288.354
287.805
287.252
286.694
286.132
285.566
284.999
284.429
283.858
283.286
291.029
290.515
289.992
289.461
288.922
288.377
287.826
287.269
286.709
286.144
285.577
285.007
284.435
283.861
283.287
291.074
290.557
290.031
289.496
288.954
288.406
287.851
287.292
286.728
286.16
285.59
285.017
284.442
283.866
283.289
291.128
290.608
290.078
289.539
288.993
288.44
287.882
287.318
286.75
286.179
285.605
285.028
284.45
283.87
283.29
291.192
290.668
290.133
289.59
289.038
288.48
287.917
287.348
286.776
286.2
285.622
285.041
284.459
283.876
283.292
291.267
290.738
290.197
289.648
289.09
288.526
287.957
287.383
286.805
286.225
285.641
285.056
284.47
283.882
283.294
291.354
290.818
290.27
289.713
289.149
288.577
288.001
287.421
286.837
286.251
285.663
285.073
284.481
283.889
283.296
291.453
290.909
290.353
289.787
289.213
288.634
288.05
287.462
286.872
286.28
285.686
285.09
284.494
283.896
283.299
291.566
291.013
290.445
289.868
289.283
288.694
288.101
287.506
286.909
286.31
285.71
285.109
284.507
283.904
283.301
291.698
291.131
290.548
289.955
289.358
288.758
288.156
287.552
286.947
286.341
285.735
285.128
284.52
283.912
283.304
291.853
291.264
290.659
290.048
289.436
288.824
288.211
287.599
286.986
286.373
285.761
285.147
284.534
283.92
283.307
292.049
291.414
290.775
290.142
289.514
288.889
288.267
287.646
287.025
286.406
285.786
285.167
284.548
283.929
283.31
322.693
322.079
321.465
320.85
320.236
319.622
319.007
318.392
317.776
317.159
316.539
315.914
315.281
314.63
313.925
322.691
322.072
321.452
320.833
320.214
319.594
318.974
318.352
317.729
317.104
316.476
315.842
315.197
314.535
313.84
322.688
322.064
321.44
320.816
320.192
319.567
318.941
318.313
317.684
317.053
316.418
315.776
315.126
314.463
313.78
322.686
322.057
321.429
320.8
320.17
319.54
318.909
318.276
317.641
317.004
316.363
315.717
315.065
314.404
313.739
322.683
322.05
321.417
320.783
320.149
319.514
318.878
318.24
317.6
316.958
316.313
315.663
315.009
314.348
313.676
322.681
322.044
321.406
320.768
320.129
319.489
318.848
318.205
317.561
316.914
316.265
315.613
314.958
314.301
313.644
322.679
322.037
321.395
320.752
320.109
319.464
318.819
318.172
317.523
316.872
316.219
315.564
314.908
314.253
313.611
322.677
322.031
321.384
320.737
320.09
319.441
318.791
318.14
317.487
316.832
316.175
315.517
314.857
314.198
313.538
322.675
322.025
321.374
320.723
320.071
319.419
318.765
318.109
317.452
316.793
316.132
315.47
314.806
314.143
313.489
322.673
322.019
321.364
320.709
320.054
319.397
318.739
318.08
317.419
316.756
316.091
315.424
314.754
314.082
313.398
322.671
322.013
321.355
320.696
320.037
319.376
318.715
318.052
317.387
316.72
316.051
315.38
314.705
314.028
313.349
322.669
322.008
321.346
320.684
320.02
319.356
318.691
318.025
317.356
316.686
316.013
315.338
314.659
313.974
313.278
322.668
322.003
321.337
320.671
320.005
319.337
318.669
317.999
317.327
316.653
315.978
315.299
314.617
313.93
313.24
322.666
321.998
321.329
320.66
319.99
319.319
318.648
317.974
317.299
316.623
315.944
315.262
314.577
313.887
313.186
322.664
321.993
321.321
320.649
319.976
319.302
318.627
317.951
317.273
316.594
315.912
315.228
314.542
313.853
313.162
322.663
321.988
321.314
320.638
319.963
319.286
318.608
317.929
317.248
316.566
315.882
315.196
314.508
313.82
313.138
322.661
321.984
321.307
320.628
319.95
319.27
318.59
317.908
317.225
316.54
315.853
315.165
314.475
313.784
313.091
322.66
321.98
321.3
320.619
319.938
319.255
318.572
317.888
317.202
316.515
315.826
315.135
314.443
313.75
313.06
322.659
321.976
321.293
320.61
319.926
319.241
318.556
317.869
317.181
316.491
315.8
315.107
314.411
313.712
313.006
322.658
321.972
321.287
320.601
319.915
319.228
318.54
317.851
317.161
316.469
315.775
315.08
314.382
313.681
312.978
322.656
321.969
321.281
320.593
319.905
319.216
318.525
317.834
317.142
316.448
315.752
315.055
314.355
313.652
312.94
322.655
321.966
321.276
320.586
319.895
319.204
318.511
317.818
317.124
316.428
315.731
315.032
314.331
313.628
312.923
322.654
321.963
321.271
320.579
319.886
319.192
318.498
317.803
317.107
316.409
315.71
315.01
314.309
313.607
312.908
322.653
321.96
321.266
320.572
319.877
319.182
318.486
317.789
317.091
316.392
315.691
314.99
314.287
313.583
312.878
322.652
321.957
321.261
320.565
319.869
319.172
318.474
317.775
317.076
316.375
315.673
314.97
314.266
313.561
312.859
322.651
321.954
321.257
320.559
319.861
319.162
318.463
317.763
317.061
316.359
315.656
314.951
314.245
313.538
312.828
322.651
321.952
321.253
320.554
319.854
319.154
318.453
317.751
317.048
316.344
315.639
314.933
314.225
313.517
312.809
322.65
321.95
321.249
320.548
319.847
319.145
318.443
317.74
317.036
316.33
315.624
314.916
314.206
313.495
312.777
322.649
321.947
321.246
320.543
319.841
319.138
318.434
317.729
317.024
316.317
315.61
314.9
314.189
313.476
312.761
322.649
321.946
321.242
320.539
319.835
319.131
318.425
317.72
317.013
316.305
315.596
314.886
314.174
313.46
312.74
322.648
321.944
321.239
320.535
319.829
319.124
318.418
317.711
317.003
316.294
315.584
314.873
314.161
313.447
312.731
322.647
321.942
321.236
320.531
319.824
319.118
318.41
317.702
316.994
316.284
315.573
314.862
314.149
313.435
312.723
322.647
321.94
321.234
320.527
319.82
319.112
318.404
317.695
316.985
316.275
315.563
314.851
314.137
313.423
312.708
322.646
321.939
321.231
320.524
319.815
319.107
318.398
317.688
316.977
316.266
315.554
314.841
314.127
313.412
312.698
322.646
321.938
321.229
320.521
319.812
319.102
318.392
317.681
316.97
316.258
315.545
314.831
314.117
313.401
312.684
322.645
321.936
321.227
320.518
319.808
319.098
318.387
317.676
316.964
316.251
315.537
314.823
314.107
313.391
312.675
322.645
321.935
321.225
320.515
319.805
319.094
318.382
317.67
316.958
316.244
315.53
314.815
314.099
313.381
312.661
322.645
321.934
321.224
320.513
319.802
319.09
318.378
317.666
316.953
316.239
315.524
314.808
314.091
313.373
312.654
322.645
321.933
321.222
320.511
319.799
319.087
318.375
317.662
316.948
316.233
315.518
314.802
314.085
313.366
312.645
322.644
321.933
321.221
320.509
319.797
319.085
318.372
317.658
316.944
316.229
315.513
314.797
314.08
313.361
312.642
322.644
321.932
321.22
320.508
319.795
319.082
318.369
317.655
316.941
316.225
315.509
314.793
314.075
313.357
312.639
322.644
321.932
321.219
320.507
319.794
319.08
318.367
317.652
316.938
316.222
315.506
314.789
314.072
313.353
312.634
322.644
321.931
321.218
320.506
319.792
319.079
318.365
317.65
316.935
316.22
315.503
314.786
314.069
313.35
312.631
322.644
321.931
321.218
320.505
319.791
319.078
318.364
317.649
316.934
316.218
315.501
314.784
314.066
313.347
312.628
322.644
321.931
321.218
320.504
319.791
319.077
318.363
317.648
316.932
316.216
315.5
314.783
314.064
313.346
312.626
322.644
321.93
321.217
320.504
319.79
319.076
318.362
317.647
316.932
316.216
315.499
314.782
314.063
313.344
312.625
322.644
321.93
321.217
320.504
319.79
319.076
318.362
317.647
316.932
316.216
315.499
314.781
314.063
313.344
312.624
322.644
321.931
321.217
320.504
319.791
319.077
318.362
317.648
316.932
316.216
315.499
314.782
314.064
313.344
312.625
322.644
321.931
321.218
320.505
319.791
319.077
318.363
317.648
316.933
316.217
315.5
314.783
314.065
313.345
312.625
322.644
321.931
321.218
320.505
319.792
319.078
318.364
317.65
316.935
316.219
315.502
314.785
314.066
313.347
312.627
322.644
321.931
321.219
320.506
319.793
319.08
318.366
317.652
316.937
316.221
315.505
314.787
314.069
313.35
312.63
322.644
321.932
321.22
320.507
319.795
319.082
318.368
317.654
316.939
316.224
315.508
314.791
314.073
313.354
312.633
322.644
321.933
321.221
320.509
319.797
319.084
318.371
317.657
316.943
316.227
315.512
314.795
314.077
313.359
312.639
322.644
321.933
321.222
320.511
319.799
319.086
318.374
317.66
316.946
316.232
315.516
314.8
314.083
313.364
312.644
322.645
321.934
321.223
320.512
319.801
319.089
318.377
317.664
316.951
316.237
315.522
314.806
314.089
313.372
312.655
322.645
321.935
321.225
320.515
319.804
319.093
318.381
317.669
316.956
316.242
315.528
314.812
314.096
313.379
312.661
322.645
321.936
321.227
320.517
319.807
319.097
318.386
317.674
316.962
316.249
315.534
314.819
314.104
313.387
312.671
322.646
321.937
321.229
320.52
319.811
319.101
318.391
317.68
316.968
316.256
315.542
314.827
314.112
313.395
312.677
322.646
321.939
321.231
320.523
319.815
319.106
318.396
317.686
316.975
316.263
315.55
314.836
314.121
313.403
312.683
322.647
321.94
321.233
320.526
319.819
319.111
318.403
317.693
316.983
316.272
315.56
314.846
314.131
313.415
312.696
322.647
321.942
321.236
320.53
319.824
319.117
318.409
317.701
316.992
316.282
315.57
314.858
314.143
313.427
312.706
322.648
321.944
321.239
320.534
319.829
319.123
318.417
317.71
317.001
316.292
315.582
314.87
314.157
313.442
312.726
322.648
321.945
321.242
320.539
319.835
319.13
318.425
317.719
317.012
316.304
315.595
314.884
314.172
313.458
312.741
322.649
321.947
321.246
320.543
319.841
319.137
318.433
317.729
317.023
316.316
315.608
314.899
314.189
313.478
312.769
322.65
321.95
321.249
320.548
319.847
319.145
318.443
317.739
317.035
316.329
315.623
314.915
314.206
313.496
312.785
322.651
321.952
321.253
320.554
319.854
319.154
318.453
317.751
317.048
316.344
315.638
314.931
314.224
313.515
312.81
322.652
321.955
321.257
320.56
319.862
319.163
318.463
317.763
317.062
316.359
315.655
314.949
314.242
313.533
312.822
322.652
321.957
321.262
320.566
319.87
319.173
318.475
317.776
317.076
316.375
315.673
314.968
314.262
313.552
312.836
322.653
321.96
321.266
320.573
319.878
319.183
318.487
317.79
317.092
316.393
315.692
314.989
314.284
313.575
312.865
322.654
321.963
321.272
320.58
319.887
319.194
318.5
317.805
317.109
316.411
315.712
315.011
314.308
313.601
312.886
322.655
321.966
321.277
320.587
319.897
319.206
318.514
317.821
317.127
316.431
315.734
315.036
314.335
313.631
312.927
322.657
321.97
321.282
320.595
319.907
319.218
318.528
317.838
317.146
316.453
315.758
315.062
314.364
313.663
312.955
322.658
321.973
321.288
320.603
319.917
319.231
318.544
317.855
317.166
316.475
315.783
315.089
314.394
313.7
313.009
322.659
321.977
321.295
320.612
319.929
319.245
318.56
317.874
317.186
316.498
315.808
315.117
314.426
313.733
313.04
322.66
321.981
321.301
320.621
319.94
319.259
318.576
317.893
317.208
316.522
315.835
315.147
314.457
313.768
313.085
322.662
321.985
321.308
320.631
319.953
319.274
318.594
317.913
317.231
316.548
315.863
315.177
314.488
313.799
313.107
322.663
321.989
321.315
320.641
319.966
319.29
318.613
317.935
317.255
316.575
315.892
315.208
314.521
313.83
313.13
322.665
321.994
321.323
320.651
319.979
319.306
318.632
317.957
317.28
316.602
315.923
315.241
314.556
313.869
313.179
322.666
321.999
321.331
320.662
319.993
319.323
318.652
317.98
317.307
316.632
315.955
315.276
314.594
313.909
313.214
322.668
322.004
321.339
320.674
320.008
319.341
318.674
318.004
317.334
316.662
315.988
315.313
314.635
313.956
313.276
322.67
322.009
321.348
320.686
320.023
319.36
318.696
318.03
317.363
316.694
316.023
315.351
314.678
314.002
313.318
322.671
322.014
321.357
320.698
320.04
319.38
318.719
318.056
317.392
316.727
316.06
315.391
314.722
314.054
313.396
322.673
322.02
321.366
320.712
320.056
319.4
318.743
318.084
317.424
316.761
316.097
315.431
314.765
314.1
313.436
322.675
322.026
321.376
320.725
320.074
319.422
318.768
318.113
317.456
316.797
316.136
315.472
314.808
314.146
313.494
322.677
322.032
321.386
320.739
320.092
319.444
318.795
318.143
317.49
316.834
316.176
315.514
314.85
314.184
313.52
322.679
322.038
321.396
320.754
320.111
319.468
318.822
318.175
317.526
316.874
316.218
315.558
314.892
314.221
313.543
322.682
322.045
321.407
320.77
320.131
319.492
318.851
318.209
317.564
316.916
316.263
315.605
314.939
314.264
313.585
322.684
322.051
321.419
320.786
320.152
319.517
318.882
318.244
317.604
316.961
316.313
315.657
314.991
314.31
313.611
322.686
322.058
321.43
320.802
320.173
319.544
318.913
318.281
317.647
317.01
316.367
315.718
315.055
314.369
313.642
322.688
322.065
321.442
320.819
320.195
319.571
318.946
318.32
317.692
317.062
316.428
315.787
315.134
314.458
313.72
292.293
291.553
290.876
290.223
289.582
288.947
288.316
287.688
287.061
286.435
285.81
285.185
284.561
283.936
283.312
292.367
291.637
290.951
290.289
289.639
288.997
288.359
287.725
287.092
286.461
285.831
285.201
284.572
283.943
283.314
292.387
291.689
291.01
290.346
289.691
289.044
288.4
287.76
287.123
286.486
285.851
285.217
284.583
283.95
283.317
292.403
291.729
291.058
290.395
289.738
289.087
288.439
287.794
287.152
286.511
285.871
285.232
284.594
283.956
283.319
292.423
291.765
291.102
290.44
289.782
289.127
288.476
287.827
287.18
286.535
285.89
285.247
284.605
283.963
283.321
292.463
291.804
291.144
290.482
289.823
289.166
288.511
287.858
287.207
286.557
285.909
285.262
284.615
283.969
283.323
292.495
291.845
291.185
290.524
289.862
289.202
288.544
287.887
287.233
286.579
285.927
285.276
284.625
283.975
283.325
292.555
291.892
291.229
290.564
289.9
289.237
288.576
287.916
287.257
286.6
285.944
285.289
284.635
283.981
283.327
292.598
291.94
291.273
290.605
289.938
289.271
288.606
287.943
287.281
286.62
285.961
285.302
284.644
283.986
283.329
292.676
291.993
291.318
290.645
289.974
289.304
288.636
287.969
287.304
286.64
285.977
285.314
284.653
283.991
283.33
292.719
292.04
291.361
290.684
290.009
289.336
288.664
287.994
287.326
286.658
285.992
285.326
284.661
283.996
283.332
292.783
292.087
291.402
290.721
290.043
289.366
288.692
288.019
287.347
286.676
286.006
285.337
284.669
284.001
283.334
292.817
292.128
291.44
290.756
290.075
289.396
288.718
288.042
287.367
286.693
286.02
285.348
284.677
284.006
283.335
292.866
292.166
291.476
290.789
290.105
289.423
288.743
288.064
287.386
286.71
286.034
285.359
284.684
284.011
283.337
292.889
292.198
291.509
290.821
290.135
289.45
288.767
288.085
287.405
286.725
286.047
285.369
284.692
284.015
283.338
292.911
292.229
291.54
290.851
290.162
289.475
288.79
288.106
287.422
286.74
286.059
285.378
284.698
284.019
283.34
292.957
292.264
291.572
290.88
290.189
289.5
288.812
288.125
287.439
286.755
286.071
285.388
284.705
284.023
283.341
292.987
292.297
291.603
290.908
290.215
289.523
288.833
288.143
287.455
286.768
286.082
285.396
284.711
284.027
283.342
293.042
292.334
291.634
290.936
290.24
289.546
288.853
288.161
287.471
286.781
286.092
285.405
284.717
284.03
283.343
293.07
292.366
291.663
290.962
290.264
289.567
288.872
288.178
287.485
286.793
286.103
285.412
284.723
284.034
283.344
293.111
292.397
291.69
290.986
290.286
289.587
288.89
288.194
287.499
286.805
286.112
285.42
284.728
284.037
283.346
293.132
292.422
291.714
291.009
290.306
289.606
288.906
288.209
287.512
286.816
286.121
285.427
284.733
284.04
283.347
293.162
292.446
291.736
291.03
290.326
289.623
288.922
288.223
287.524
286.827
286.13
285.434
284.738
284.043
283.348
293.175
292.465
291.756
291.049
290.344
289.64
288.937
288.236
287.536
286.836
286.138
285.44
284.742
284.045
283.348
293.188
292.482
291.774
291.067
290.36
289.655
288.951
288.248
287.546
286.845
286.145
285.446
284.747
284.048
283.349
293.213
292.502
291.792
291.084
290.376
289.669
288.964
288.26
287.557
286.854
286.152
285.451
284.751
284.05
283.35
293.229
292.52
291.81
291.1
290.391
289.683
288.976
288.271
287.566
286.862
286.159
285.456
284.754
284.052
283.351
293.257
292.54
291.826
291.115
290.404
289.695
288.988
288.281
287.575
286.87
286.165
285.461
284.758
284.054
283.351
293.272
292.556
291.842
291.129
290.417
289.707
288.998
288.29
287.583
286.877
286.171
285.466
284.761
284.056
283.352
293.292
292.572
291.856
291.141
290.429
289.718
289.008
288.299
287.59
286.883
286.176
285.47
284.764
284.058
283.353
293.303
292.584
291.868
291.153
290.44
289.728
289.017
288.307
287.597
286.889
286.181
285.474
284.767
284.06
283.353
293.316
292.596
291.879
291.163
290.449
289.736
289.025
288.314
287.604
286.894
286.185
285.477
284.769
284.061
283.354
293.323
292.605
291.888
291.172
290.458
289.745
289.032
288.32
287.609
286.899
286.19
285.48
284.771
284.063
283.354
293.328
292.613
291.896
291.181
290.466
289.752
289.039
288.326
287.615
286.904
286.193
285.483
284.773
284.064
283.355
293.339
292.621
291.904
291.188
290.473
289.758
289.045
288.332
287.62
286.908
286.197
285.486
284.775
284.065
283.355
293.345
292.628
291.911
291.195
290.479
289.764
289.05
288.337
287.624
286.911
286.2
285.488
284.777
284.066
283.355
293.356
292.636
291.918
291.201
290.485