/*--------------------------------*- C++ -*----------------------------------*\
| =========                 |                                                 |
| \\      /  F ield         | OpenFOAM: The Open Source CFD Toolbox           |
|  \\    /   O peration     | Version:  5.x                                   |
|   \\  /    A nd           | Web:      www.OpenFOAM.org                      |
|    \\/     M anipulation  |                                                 |
\*---------------------------------------------------------------------------*/
FoamFile
{
    version     2.0;
    format      ascii;
    class       volScalarField;
    location    "4.8";
    object      gradTy;
}
// * * * * * * * * * * * * * * * * * * * * * * * * * * * * * * * * * * * * * //

dimensions      [0 -1 0 1 0 0 0];

internalField   nonuniform List<scalar> 
6300
(
32274.1
32222.2
32170.4
32118.6
32066.9
32015.2
31963.7
31912.3
31861
31809.9
31758.9
31708.2
31657.6
31607.3
31557.2
-0.013965
-0.0419583
-0.0701284
-0.0985552
-0.127249
-0.156124
-0.184982
-0.2135
-0.241237
-0.267667
-0.292243
-0.314508
-0.334239
-0.3516
-0.36727
-0.0231951
-0.0697193
-0.116595
-0.163972
-0.211893
-0.260241
-0.308701
-0.356728
-0.40355
-0.448214
-0.489691
-0.52706
-0.55977
-0.587953
-0.612707
-0.0323097
-0.097136
-0.162547
-0.228823
-0.296084
-0.364221
-0.432822
-0.501124
-0.567981
-0.631907
-0.691202
-0.74422
-0.789779
-0.827692
-0.859318
-0.0412243
-0.123984
-0.207654
-0.292712
-0.379428
-0.467767
-0.55728
-0.647006
-0.735392
-0.820283
-0.899046
-0.968898
-1.0275
-1.07381
-1.10911
-0.049811
-0.1499
-0.25135
-0.354921
-0.461127
-0.570114
-0.6815
-0.794203
-0.90627
-1.01476
-1.11578
-1.2048
-1.27746
-1.33089
-1.36549
-0.0579303
-0.174456
-0.292931
-0.4145
-0.540055
-0.670074
-0.804416
-0.942051
-1.08074
-1.21673
-1.34452
-1.45708
-1.54667
-1.60679
-1.63529
-0.0653896
-0.197073
-0.331429
-0.470112
-0.61454
-0.765736
-0.924066
-1.08887
-1.25795
-1.42691
-1.58852
-1.73234
-1.84533
-1.91426
-1.93092
-0.071948
-0.217023
-0.365613
-0.519989
-0.682273
-0.854282
-1.03726
-1.23144
-1.43528
-1.64444
-1.85028
-2.0384
-2.18798
-2.2739
-2.27464
-0.0773294
-0.23346
-0.394016
-0.56197
-0.740293
-0.93187
-1.13928
-1.36435
-1.60731
-1.86526
-2.1297
-2.38292
-2.59416
-2.71853
-2.7065
-0.08124
-0.245476
-0.415027
-0.593589
-0.785072
-0.993638
-1.22364
-1.47938
-1.76433
-2.07956
-2.42025
-2.76931
-3.08703
-3.29935
-3.2993
-0.0833956
-0.25218
-0.427033
-0.612296
-0.812781
-1.03398
-1.28229
-1.56517
-1.89104
-2.26831
-2.70231
-3.18688
-3.68515
-4.09243
-4.19156
-0.083559
-0.25282
-0.428634
-0.615793
-0.819788
-1.04722
-1.30636
-1.60796
-1.96629
-2.40026
-2.93365
-3.59062
-4.37418
-5.19371
-5.67348
-0.0815805
-0.246913
-0.418898
-0.602466
-0.803373
-1.02876
-1.28797
-1.59401
-1.96583
-2.43267
-3.0413
-3.8677
-5.0273
-6.635
-8.42434
-0.0774324
-0.234356
-0.39759
-0.571812
-0.762499
-0.976472
-1.22278
-1.51422
-1.87028
-2.32315
-2.93109
-3.81161
-5.23263
-7.89508
-13.923
31511.5
31470.1
31428.9
31387.8
31347
31306.4
31266
31225.8
31185.9
31146.2
31106.8
31067.7
31029
30990.5
30952.5
30914.8
30877.4
30840.5
30804
30767.8
30732.1
30696.8
30661.8
30627.3
30593.2
30559.4
30526
30493
30460.3
30427.9
30395.9
30364.2
30332.7
30301.6
30270.7
30240.1
30209.8
30179.7
30149.9
30120.4
30091
30061.9
30033.1
30004.5
29976.1
29948
29920.1
29892.5
29865.1
29837.9
29811
29784.2
29757.7
29731.4
29705.3
29679.3
29653.5
29627.9
29602.4
29577.1
29551.8
29526.7
29501.6
29476.7
29451.8
29426.9
29402.1
29377.4
29352.6
29327.9
29303.2
29278.5
29253.7
29228.9
29204.1
29179.2
29154.3
29129.3
29104.1
29078.9
29053.6
29028.1
29002.6
28976.9
28951
28925
28898.8
28872.4
28845.9
28819.2
-0.381215
-0.394697
-0.410113
-0.428573
-0.450997
-0.477956
-0.509542
-0.545324
-0.584384
-0.625434
-0.66699
-0.707567
-0.74584
-0.780751
-0.811533
-0.837679
-0.858867
-0.87488
-0.885569
-0.890842
-0.890701
-0.885287
-0.874913
-0.860067
-0.841388
-0.819617
-0.795541
-0.76996
-0.743657
-0.717386
-0.691855
-0.667694
-0.645419
-0.625397
-0.607828
-0.592755
-0.580107
-0.569747
-0.561515
-0.555246
-0.550755
-0.547788
-0.545976
-0.544798
-0.54359
-0.541591
-0.538024
-0.532193
-0.523571
-0.511852
-0.496966
-0.479052
-0.45841
-0.435443
-0.410613
-0.384404
-0.357299
-0.329756
-0.302181
-0.274889
-0.248081
-0.22183
-0.196096
-0.170766
-0.145699
-0.120779
-0.0959333
-0.0711397
-0.0463997
-0.0217108
0.00295482
0.0276516
0.0524404
0.0773556
0.102376
0.12741
0.152309
0.176893
0.200988
0.224441
0.247128
0.268919
0.28964
0.309037
0.326753
0.342341
0.355298
0.365125
0.371386
0.373759
-0.634243
-0.654955
-0.678917
-0.708249
-0.744745
-0.789547
-0.842892
-0.904005
-0.971168
-1.04196
-1.1136
-1.18335
-1.24885
-1.30828
-1.36041
-1.40452
-1.44019
-1.46714
-1.48511
-1.49391
-1.49346
-1.48395
-1.46588
-1.44013
-1.40783
-1.3703
-1.32891
-1.28503
-1.23999
-1.19509
-1.15154
-1.11045
-1.07275
-1.03907
-1.00972
-0.984713
-0.963854
-0.946845
-0.933392
-0.923249
-0.916175
-0.911826
-0.909637
-0.908735
-0.907935
-0.905838
-0.900997
-0.892118
-0.878233
-0.858813
-0.83378
-0.803443
-0.768391
-0.729374
-0.687212
-0.642752
-0.596837
-0.55028
-0.503809
-0.457994
-0.413187
-0.369486
-0.326766
-0.284757
-0.243156
-0.201723
-0.160342
-0.119006
-0.0777653
-0.0366494
0.00438686
0.0454659
0.0867402
0.128314
0.170172
0.212147
0.253943
0.295209
0.33562
0.374927
0.412962
0.449574
0.484535
0.517453
0.547717
0.574517
0.596926
0.61401
0.624962
0.629204
-0.885508
-0.9104
-0.939854
-0.977472
-1.02639
-1.08869
-1.16491
-1.25383
-1.35259
-1.45711
-1.56278
-1.66513
-1.76046
-1.84615
-1.92069
-1.98337
-2.03394
-2.07217
-2.09771
-2.11013
-2.10911
-2.09476
-2.06778
-2.02948
-1.98166
-1.92638
-1.8657
-1.80161
-1.73599
-1.67068
-1.60751
-1.54818
-1.49414
-1.44634
-1.40519
-1.37054
-1.3419
-1.31867
-1.30035
-1.28668
-1.27752
-1.2726
-1.27129
-1.27237
-1.274
-1.27389
-1.26964
-1.2591
-1.24072
-1.21371
-1.17809
-1.13448
-1.08394
-1.02769
-0.966982
-0.903057
-0.837165
-0.770548
-0.704358
-0.639518
-0.57657
-0.515601
-0.456284
-0.398036
-0.340245
-0.282472
-0.224563
-0.166614
-0.108833
-0.0513556
0.00587306
0.063113
0.120721
0.178975
0.23791
0.297247
0.356444
0.41486
0.47194
0.527341
0.580938
0.632694
0.68246
0.729773
0.773746
0.813095
0.846295
0.871802
0.888281
0.894788
-1.13537
-1.15944
-1.18921
-1.2306
-1.28897
-1.36801
-1.46887
-1.58973
-1.72595
-1.87088
-2.01701
-2.1573
-2.28625
-2.40042
-2.49837
-2.58002
-2.64581
-2.69584
-2.7296
-2.74609
-2.74436
-2.72418
-2.68639
-2.63295
-2.56668
-2.49067
-2.40786
-2.32085
-2.232
-2.14368
-2.05843
-1.9788
-1.90702
-1.84454
-1.7918
-1.74823
-1.71268
-1.68392
-1.66113
-1.64414
-1.63326
-1.6287
-1.63004
-1.63575
-1.64308
-1.64842
-1.64786
-1.63791
-1.61615
-1.58155
-1.53439
-1.47601
-1.40823
-1.33293
-1.25188
-1.16668
-1.07902
-0.990677
-0.903433
-0.818777
-0.737555
-0.659782
-0.584699
-0.511085
-0.437724
-0.363824
-0.289237
-0.214368
-0.139838
-0.0660685
0.00698962
0.0798874
0.153439
0.228333
0.30476
0.382249
0.459782
0.536157
0.61041
0.682099
0.75132
0.818445
0.883693
0.946689
1.00623
1.06033
1.10655
1.14242
1.16582
1.17529
-1.38488
-1.40019
-1.42175
-1.45922
-1.52171
-1.61583
-1.74396
-1.90344
-2.08673
-2.28286
-2.47959
-2.66576
-2.83328
-2.978
-3.09946
-3.19949
-3.28032
-3.34292
-3.38634
-3.40823
-3.40617
-3.37895
-3.32749
-3.2549
-3.16572
-3.06475
-2.95607
-2.84273
-2.72723
-2.61226
-2.50124
-2.39811
-2.3065
-2.22874
-2.1652
-2.11439
-2.07371
-2.04058
-2.01356
-1.99285
-1.97991
-1.97633
-1.98254
-1.9968
-2.01507
-2.03149
-2.03961
-2.03375
-2.01012
-1.96747
-1.9069
-1.83112
-1.74336
-1.64651
-1.54275
-1.43389
-1.32189
-1.20925
-1.09881
-0.993117
-0.8936
-0.800116
-0.71102
-0.623794
-0.536
-0.446185
-0.354336
-0.261652
-0.16976
-0.0797698
0.00832695
0.0957117
0.184218
0.275475
0.370076
0.467184
0.564786
0.660509
0.752573
0.840412
0.924719
1.0069
1.08817
1.16858
1.24655
1.31893
1.38173
1.43098
1.4634
1.47682
-1.6377
-1.63189
-1.63131
-1.65172
-1.70879
-1.81453
-1.97382
-2.18274
-2.42889
-2.69388
-2.95724
-3.20096
-3.413
-3.58895
-3.73125
-3.84646
-3.94096
-4.01748
-4.07391
-4.10475
-4.10406
-4.06846
-3.99888
-3.90058
-3.78157
-3.64977
-3.51082
-3.36758
-3.22154
-3.07501
-2.93254
-2.80067
-2.68589
-2.59229
-2.5201
-2.4658
-2.42369
-2.38826
-2.35674
-2.3302
-2.3129
-2.30971
-2.32325
-2.35193
-2.38954
-2.42634
-2.45134
-2.45499
-2.43132
-2.37904
-2.30114
-2.20329
-2.09143
-1.96986
-1.84082
-1.70545
-1.56553
-1.42449
-1.2872
-1.1584
-1.0408
-0.93397
-0.834486
-0.737163
-0.637027
-0.531323
-0.420483
-0.307647
-0.196791
-0.0905949
0.0108394
0.11007
0.21118
0.317944
0.431921
0.551542
0.672627
0.79026
0.900951
1.00394
1.1013
1.1968
1.29398
1.39411
1.49502
1.59143
1.67653
1.74386
1.78845
1.80719
-1.90194
-1.85587
-1.81044
-1.79115
-1.82549
-1.93576
-2.13182
-2.40803
-2.74352
-3.10685
-3.46274
-3.78134
-4.04425
-4.24785
-4.40159
-4.52273
-4.62699
-4.72042
-4.79782
-4.84609
-4.85167
-4.80634
-4.71101
-4.57549
-4.41519
-4.24448
-4.07111
-3.89582
-3.71589
-3.53124
-3.34792
-3.17791
-3.0341
-2.9243
-2.84852
-2.79897
-2.76333
-2.72961
-2.69201
-2.65353
-2.62481
-2.61826
-2.64141
-2.69347
-2.76441
-2.83745
-2.89307
-2.91481
-2.89297
-2.82677
-2.72339
-2.59489
-2.45274
-2.30324
-2.14726
-1.98286
-1.81007
-1.63361
-1.46265
-1.30688
-1.17179
-1.05658
-0.954176
-0.853924
-0.745426
-0.62322
-0.488887
-0.350179
-0.216519
-0.0939784
0.0170993
0.122288
0.230552
0.350565
0.486162
0.634299
0.785929
0.930481
1.06088
1.17602
1.281
1.3847
1.49597
1.61888
1.75033
1.88057
1.99725
2.08981
2.151
2.17691
-2.19431
-2.07864
-1.95152
-1.85291
-1.83227
-1.93282
-2.17367
-2.54718
-3.01726
-3.52967
-4.02108
-4.44101
-4.75998
-4.97759
-5.11784
-5.22226
-5.32753
-5.44533
-5.56252
-5.64773
-5.67139
-5.61497
-5.47977
-5.28479
-5.06247
-4.84168
-4.63276
-4.42934
-4.21563
-3.98412
-3.74265
-3.51597
-3.33184
-3.20578
-3.13766
-3.11054
-3.09864
-3.07498
-3.02697
-2.96122
-2.9032
-2.8824
-2.91632
-3.00619
-3.13464
-3.27198
-3.38199
-3.43575
-3.41686
-3.32642
-3.18019
-3.00456
-2.82301
-2.64437
-2.46425
-2.27076
-2.05835
-1.83325
-1.61472
-1.42407
-1.27266
-1.15928
-1.06931
-0.981127
-0.872149
-0.731195
-0.562229
-0.384114
-0.218936
-0.0795872
0.0330821
0.131295
0.234197
0.36191
0.523476
0.713123
0.910482
1.0921
1.24379
1.36368
1.46348
1.56259
1.68209
1.83221
2.00819
2.18998
2.35342
2.48157
2.56501
2.60048
-2.54776
-2.31751
-2.05119
-1.802
-1.66405
-1.72728
-2.02377
-2.54647
-3.22921
-3.98183
-4.68141
-5.2451
-5.62067
-5.81768
-5.8846
-5.91943
-6.00881
-6.1699
-6.37197
-6.5367
-6.60511
-6.53568
-6.3332
-6.03204
-5.70607
-5.42027
-5.18497
-4.97608
-4.73939
-4.44973
-4.11447
-3.79106
-3.54428
-3.40211
-3.36602
-3.39845
-3.44912
-3.45362
-3.38569
-3.25596
-3.12617
-3.06592
-3.10881
-3.2615
-3.49019
-3.74401
-3.95
-4.05945
-4.04192
-3.90452
-3.67744
-3.42087
-3.18724
-2.9858
-2.79863
-2.5841
-2.32307
-2.02164
-1.72484
-1.483
-1.31701
-1.22653
-1.18019
-1.13658
-1.04325
-0.877862
-0.647122
-0.397831
-0.182605
-0.0252639
0.0713602
0.135002
0.203541
0.325907
0.52172
0.78218
1.059
1.29807
1.47371
1.58142
1.64808
1.71222
1.82517
2.0093
2.25869
2.52674
2.76128
2.93856
3.04883
3.09778
-3.02471
-2.60815
-2.12612
-1.59101
-1.20637
-1.18616
-1.54842
-2.31559
-3.34078
-4.51066
-5.53773
-6.32044
-6.73886
-6.84551
-6.698
-6.5385
-6.5873
-6.83592
-7.23567
-7.56489
-7.73781
-7.64857
-7.32932
-6.8156
-6.29246
-5.92674
-5.69976
-5.56348
-5.34005
-4.98166
-4.46989
-3.95651
-3.60677
-3.44639
-3.49639
-3.66082
-3.86678
-3.93729
-3.83416
-3.55155
-3.24975
-3.10168
-3.14397
-3.40815
-3.81029
-4.2857
-4.6578
-4.86675
-4.84035
-4.61253
-4.21791
-3.80491
-3.50583
-3.30741
-3.17315
-2.96511
-2.6467
-2.20403
-1.75648
-1.43337
-1.25329
-1.23089
-1.28775
-1.36427
-1.31869
-1.11921
-0.759262
-0.363015
-0.0634148
0.115996
0.156639
0.131184
0.0949204
0.183721
0.426481
0.827326
1.26152
1.59505
1.80114
1.85793
1.83601
1.79125
1.86549
2.09217
2.48208
2.91151
3.25136
3.49178
3.62068
3.69508
-3.74218
-2.99327
-2.27793
-1.16405
-0.225018
-0.0957255
-0.491674
-1.71494
-3.24592
-5.24716
-6.74809
-7.92263
-8.30843
-8.24189
-7.53141
-6.86044
-6.881
-7.28738
-8.20406
-8.82137
-9.25138
-9.0961
-8.60906
-7.61642
-6.65595
-6.23731
-6.08788
-6.2804
-6.13914
-5.73856
-4.83184
-3.8906
-3.40096
-3.19212
-3.46646
-3.86791
-4.48408
-4.6756
-4.54575
-3.8795
-3.15673
-2.86811
-2.86447
-3.36097
-4.02977
-4.98102
-5.60542
-6.01785
-5.93369
-5.56559
-4.78973
-4.02972
-3.68427
-3.54141
-3.65865
-3.50977
-3.15393
-2.39808
-1.6135
-1.18229
-0.966963
-1.12552
-1.37133
-1.77205
-1.81991
-1.59574
-0.927673
-0.192937
0.225051
0.453376
0.333458
0.139389
-0.197251
-0.183507
0.100345
0.821331
1.60598
2.07264
2.34076
2.24508
2.05416
1.69638
1.68385
1.93763
2.64629
3.4231
3.88257
4.20359
4.26909
4.43058
-4.95048
-3.33063
-3.00403
-0.485147
1.92288
1.75165
1.75697
-0.670667
-2.4734
-6.70363
-8.42793
-10.66
-10.5288
-10.5649
-8.3072
-6.18582
-6.61834
-7.00331
-9.60282
-10.3469
-11.607
-11.0205
-10.616
-8.37
-6.23821
-6.15925
-5.98267
-7.47702
-7.31068
-7.22333
-5.24243
-3.17333
-2.78969
-2.24101
-3.25241
-3.76475
-5.71176
-5.87559
-6.02865
-4.28766
-2.43736
-2.22301
-1.86359
-3.06452
-3.84131
-6.14581
-6.85706
-7.88283
-7.43466
-7.10462
-5.33752
-3.65634
-3.5698
-3.39966
-4.52612
-4.35123
-4.23597
-2.63232
-0.960531
-0.61917
-0.141073
-0.893309
-1.23065
-2.68677
-2.71167
-2.71036
-1.191
0.434294
0.787663
1.2933
0.618133
0.353982
-0.992908
-0.938639
-0.854278
0.724591
2.40919
2.83699
3.40514
2.77024
2.5135
1.10521
1.11955
1.1288
2.7131
4.39228
4.71377
5.284
4.77998
5.4018
-7.54559
-1.80552
-6.88693
0.353493
7.78519
3.34527
7.50962
-0.52572
1.79528
-11.7681
-9.37597
-16.8002
-12.5075
-16.1902
-8.88604
-1.83288
-6.42339
-3.52951
-13.6727
-11.1283
-16.6209
-12.6823
-15.2737
-8.95823
-2.86349
-6.22082
-3.4703
-11.0641
-8.36748
-11.4338
-5.779
-0.0279297
-2.41499
0.957715
-3.75594
-1.59452
-9.50613
-7.08996
-10.2379
-4.85209
0.638952
-1.78563
1.38538
-3.37762
-1.45176
-9.60369
-7.65456
-11.8691
-8.76432
-10.7118
-5.76037
-0.985461
-3.57447
-1.38959
-7.26628
-5.1056
-7.46006
-2.96349
1.60946
-0.251763
2.45766
-1.25735
0.522253
-5.66121
-3.64
-6.00976
-1.60573
2.89421
1.13211
3.83461
0.312052
2.12878
-3.80512
-1.73607
-3.95992
0.47658
5.02315
3.40018
6.20277
2.75177
4.63193
-1.53364
0.563402
-1.94725
2.64401
7.31729
5.18748
7.91201
3.6704
7.13945
-17.255
15.3028
-28.5129
0.916691
30.7424
-7.45165
30.8295
-15.2944
28.9371
-39.8092
3.81097
-39.8133
-3.00232
-37.6377
-9.10419
19.2861
-17.0069
18.7169
-36.0139
-0.337535
-35.2171
-4.94166
-32.7587
-9.22979
14.121
-15.079
13.9366
-29.4706
-1.12695
-28.2042
-6.45557
14.835
-10.3358
15.7994
-14.1611
15.0794
-28.1741
-0.293586
-26.7372
-5.56972
15.1121
-9.40754
16.0577
-13.3243
15.4482
-27.6088
0.421883
-26.3967
-2.82049
-24.2549
-5.93071
12.2878
-10.4552
12.2275
-21.5818
0.640166
-20.5512
-3.40621
13.4431
-6.46762
14.306
-9.53511
13.7404
-20.4518
1.75324
-19.0648
-2.15988
14.3701
-4.95372
15.3387
-7.68379
15.0632
-18.1427
3.64715
-16.6574
0.0690703
16.5203
-2.41034
18.0046
-4.94443
18.3353
-16.0714
6.64153
-15.2507
2.45617
20.038
-1.32963
20.5706
-8.5432
13.6754
28789.6
28757.1
28724.3
28691.3
28658.1
28624.6
28591
28557.2
28523.2
28489.1
28454.8
28420.5
28386.1
28351.7
28317.2
0.371906
0.364087
0.350821
0.332737
0.310638
0.285392
0.257835
0.228712
0.198632
0.168058
0.137311
0.106586
0.0759821
0.0455173
0.0151589
0.626151
0.612756
0.589974
0.558965
0.521185
0.478183
0.431435
0.382224
0.331581
0.280272
0.228812
0.177504
0.126482
0.0757485
0.0252241
0.890468
0.870826
0.837365
0.79197
0.736955
0.674725
0.607504
0.537175
0.465206
0.392646
0.32017
0.248144
0.176695
0.105774
0.0352152
1.16963
1.14264
1.09662
1.03453
0.95988
0.876201
0.786635
0.693733
0.599398
0.504921
0.411071
0.318206
0.226382
0.13544
0.0450791
1.46962
1.43347
1.37194
1.28963
1.19181
1.08353
0.969072
0.851701
0.733716
0.616556
0.500975
0.38722
0.275185
0.164524
0.0547409
1.79797
1.74972
1.66807
1.56026
1.43418
1.29701
1.15437
1.01025
0.86719
0.726598
0.589041
0.454508
0.32261
0.192728
0.0641009
2.16471
2.09956
1.99051
1.84924
1.68772
1.51596
1.34111
1.16769
0.998161
0.833584
0.674071
0.519151
0.368016
0.219673
0.0730342
2.58371
2.49365
2.34548
2.15873
1.95171
1.73809
1.52643
1.32118
1.12414
0.935475
0.754486
0.579996
0.410622
0.244912
0.0813944
3.07499
2.94631
2.73943
2.48892
2.22272
1.95859
1.70546
1.46649
1.24169
1.02966
0.828377
0.635706
0.449555
0.26795
0.0890227
3.66988
3.47703
3.17697
2.83483
2.49201
2.1685
1.8706
1.59771
1.34651
1.11307
0.893633
0.684874
0.483929
0.288303
0.0957641
4.42877
4.11386
3.65568
3.1805
2.74176
2.35298
2.01095
1.70735
1.43362
1.18249
0.948193
0.726211
0.512972
0.305562
0.101491
5.50112
4.89445
4.15186
3.48909
2.94113
2.49069
2.11297
1.78721
1.49816
1.23508
0.99043
0.758795
0.53618
0.319478
0.10613
7.2892
5.81102
4.56932
3.683
3.04288
2.55571
2.16314
1.83043
1.53677
1.26926
1.01964
0.782351
0.553467
0.330038
0.109682
10.7182
6.4904
4.6312
3.63063
2.99169
2.52627
2.15354
1.83469
1.54924
1.28554
1.0365
0.797491
0.565294
0.337519
0.112238
-0.0718954
-0.217531
-0.368803
-0.529841
-0.705401
-0.901264
-1.12488
-1.38643
-1.70084
-2.09188
-2.60131
-3.31215
-4.41537
-6.42755
-10.9819
-0.0654481
-0.197911
-0.335139
-0.480538
-0.637887
-0.811521
-1.00658
-1.22927
-1.48712
-1.78887
-2.14224
-2.54267
-2.92131
-2.90769
-0.701956
-0.0579155
-0.174988
-0.295809
-0.422952
-0.55908
-0.706914
-0.869078
-1.04763
-1.24284
-1.44997
-1.65061
-1.78852
-1.6995
-0.909723
1.89864
-0.0495208
-0.149464
-0.252096
-0.35914
-0.472163
-0.592369
-0.720184
-0.854371
-0.990184
-1.1155
-1.20271
-1.19232
-0.963847
-0.314026
0.850982
-0.0405
-0.122075
-0.205325
-0.291189
-0.380273
-0.472553
-0.566858
-0.659923
-0.744688
-0.807361
-0.822716
-0.748007
-0.520202
-0.0763696
0.552982
-0.0310818
-0.0935266
-0.156746
-0.221015
-0.286181
-0.351352
-0.414404
-0.471203
-0.51442
-0.531926
-0.50528
-0.410395
-0.22631
0.0323691
0.218735
-0.0214695
-0.0644431
-0.107444
-0.150227
-0.1921
-0.231642
-0.26631
-0.291906
-0.301925
-0.286993
-0.235158
-0.134909
0.0158826
0.191318
0.317712
-0.0118336
-0.0353406
-0.0582945
-0.080073
-0.0996419
-0.115326
-0.124531
-0.123434
-0.106717
-0.0675706
0.00143185
0.10543
0.241013
0.384339
0.463735
-0.00230795
-0.00662026
-0.00995819
-0.0114511
-0.00987995
-0.00350958
0.0100877
0.0341807
0.0729297
0.131192
0.213788
0.323844
0.4608
0.621781
0.826975
0.00700854
0.0214272
0.0371019
0.0550488
0.0765557
0.103295
0.137421
0.181612
0.239027
0.313099
0.407122
0.523602
0.663935
0.828544
1.01029
0.0160484
0.0486073
0.0825912
0.119084
0.159367
0.204983
0.257774
0.319865
0.393559
0.481178
0.584891
0.706822
0.850242
1.02344
1.25199
0.0247701
0.0748041
0.126347
0.180498
0.238486
0.301702
0.371686
0.45007
0.53843
0.638097
0.750036
0.875146
1.0159
1.17991
1.37651
0.0331517
0.0999599
0.168301
0.239258
0.313989
0.393736
0.479784
0.573364
0.675461
0.786514
0.906061
1.03263
1.16545
1.31379
1.53458
0.0411852
0.124058
0.208451
0.29541
0.386026
0.481414
0.582672
0.690764
0.806289
0.929053
1.05724
1.18583
1.30423
1.39741
1.49326
0.0488722
0.147109
0.246829
0.34904
0.454766
0.565037
0.680838
0.803024
0.932113
1.06785
1.20816
1.34614
1.46056
1.47922
1.10842
0.0562198
0.169137
0.28349
0.400244
0.520372
0.644842
0.774598
0.910518
1.05334
1.20351
1.36072
1.52286
1.68344
1.83152
2.00559
0.0632383
0.190176
0.318497
0.449125
0.582986
0.721004
0.864105
1.01325
1.1695
1.33429
1.50992
1.70072
1.91503
2.16585
2.44272
0.0699395
0.210262
0.351914
0.49578
0.642738
0.793664
0.94945
1.11107
1.27976
1.45757
1.64862
1.86232
2.12132
2.48216
3.09832
0.0763356
0.229434
0.38381
0.540308
0.699759
0.862981
1.03078
1.20401
1.38373
1.5717
1.77163
1.99252
2.25695
2.62125
3.22093
0.0824384
0.247727
0.414247
0.582806
0.754192
0.929151
1.10837
1.29248
1.48201
1.67755
1.88013
2.09255
2.32331
2.59694
2.96939
0.0882585
0.265175
0.443284
0.623366
0.806173
0.992396
1.18262
1.37722
1.57615
1.77855
1.98186
2.17994
2.35993
2.50412
2.66828
0.0938048
0.281804
0.470968
0.662059
0.855813
1.0529
1.25387
1.45899
1.66792
1.87897
2.08728
2.27999
2.42146
2.39751
1.75476
0.0990843
0.297635
0.497332
0.69893
0.90317
1.11075
1.32228
1.53815
1.75825
1.98133
2.2036
2.41573
2.5979
2.72072
2.83208
0.104102
0.312683
0.522394
0.733994
0.948243
1.1659
1.38773
1.61442
1.84655
2.0843
2.32702
2.57236
2.81562
3.052
3.28285
0.108862
0.326957
0.546166
0.767247
0.990984
1.21821
1.44984
1.68697
1.93098
2.18387
2.44869
2.73056
3.0382
3.38721
3.81612
0.113369
0.340469
0.568659
0.798687
1.03134
1.2675
1.50819
1.75478
2.00931
2.27518
2.55858
2.87096
3.23216
3.66704
4.14864
0.11763
0.353238
0.589898
0.828334
1.06931
1.31369
1.5625
1.81714
2.0798
2.35438
2.64843
2.97757
3.37503
3.91457
4.77883
0.121653
0.36529
0.609927
0.856248
1.10497
1.35685
1.61281
1.87398
2.14208
2.42009
2.71399
3.03686
3.41933
3.93674
4.78598
0.12545
0.376661
0.628812
0.882532
1.13846
1.39725
1.65955
1.92606
2.19752
2.47484
2.75952
3.05491
3.37001
3.72861
4.16959
0.129035
0.387395
0.646631
0.907318
1.17002
1.43525
1.70343
1.97477
2.24893
2.52452
2.79769
3.05941
3.29055
3.46343
3.64652
0.132422
0.397537
0.663468
0.930743
1.19986
1.47126
1.74519
2.02156
2.29942
2.57594
2.84391
3.08529
3.25162
3.19129
2.31118
0.135625
0.407129
0.679397
0.952924
1.22818
1.50556
1.78533
2.06738
2.35088
2.63334
2.9087
3.16343
3.37015
3.48857
3.57468
0.138656
0.416207
0.694478
0.973943
1.25506
1.53827
1.82393
2.11226
2.40313
2.69573
2.98789
3.27506
3.55008
3.80846
4.0679
0.141525
0.424802
0.708758
0.993853
1.28055
1.56934
1.86076
2.15544
2.45423
2.75848
3.07061
3.39529
3.74167
4.12774
4.59628
0.144243
0.432941
0.722277
1.01269
1.30464
1.59865
1.89539
2.19582
2.50159
2.81582
3.14471
3.50058
3.90581
4.38991
4.92841
0.14682
0.440654
0.735077
1.0305
1.32735
1.62613
1.92753
2.23257
2.54315
2.86303
3.20016
3.57175
4.01528
4.61446
5.57417
0.149266
0.447975
0.747216
1.04735
1.34876
1.65187
1.9572
2.26555
2.57832
2.89832
3.23179
3.59311
4.01679
4.58883
5.53833
0.151596
0.454944
0.758764
1.06336
1.36905
1.67612
1.98485
2.29554
2.60853
2.92434
3.24417
3.57134
3.91537
4.30124
4.76403
0.153822
0.461604
0.769799
1.07867
1.38844
1.69928
2.01121
2.32401
2.63683
2.94762
3.25157
3.53804
3.78498
3.9604
4.14029
0.155957
0.467995
0.780398
1.09339
1.40714
1.72174
2.03705
2.35252
2.66662
2.97571
3.27121
3.53236
3.70434
3.61662
2.60432
0.158012
0.47415
0.790621
1.10762
1.42532
1.74377
2.06286
2.38205
2.69995
3.0133
3.3148
3.58879
3.80411
3.91505
3.98257
0.159996
0.480093
0.800504
1.12143
1.44303
1.76543
2.08866
2.41255
2.73651
3.05918
3.37758
3.68615
3.97647
4.24379
4.51152
0.161912
0.485836
0.810065
1.1348
1.46024
1.78659
2.11409
2.44307
2.77405
3.10807
3.44729
3.79636
4.1649
4.57241
5.06487
0.163763
0.491387
0.819307
1.14773
1.47687
1.80702
2.13858
2.47227
2.80953
3.1534
3.51026
3.8932
4.32641
4.8422
5.415
0.165552
0.496751
0.828234
1.1602
1.49287
1.82654
2.16166
2.49907
2.84051
3.18977
3.55521
3.95529
4.4307
5.07259
6.10398
0.167282
0.501936
0.836858
1.17223
1.50824
1.84513
2.18323
2.52315
2.86613
3.21499
3.57622
3.96525
4.41949
5.03269
6.05575
0.168957
0.506955
0.845202
1.18386
1.52306
1.86295
2.20362
2.54518
2.88775
3.23168
3.57802
3.93012
4.29801
4.70835
5.19752
0.170579
0.511819
0.853296
1.19515
1.53747
1.88029
2.22347
2.56657
2.90849
3.24677
3.57595
3.88419
4.14714
4.32945
4.51295
0.172152
0.516537
0.861162
1.20616
1.5516
1.89746
2.24346
2.58885
2.93183
3.26824
3.58854
3.86991
4.05235
3.94991
2.83896
0.173673
0.521109
0.868803
1.2169
1.5655
1.91459
2.26395
2.6129
2.9598
3.30096
3.62828
3.92452
4.15545
4.2709
4.33653
0.17514
0.52552
0.876196
1.22735
1.57913
1.93162
2.2848
2.63843
2.99181
3.34334
3.6897
4.02466
4.33884
4.62667
4.91252
0.176543
0.529745
0.883291
1.23741
1.59231
1.94824
2.30543
2.66422
3.02518
3.38938
3.75914
4.13942
4.54065
4.98398
5.51985
0.177873
0.53375
0.890023
1.24696
1.60486
1.96405
2.32502
2.6886
3.05636
3.43162
3.82135
4.2398
4.71334
5.27719
5.90326
0.179117
0.537499
0.896326
1.2559
1.61656
1.9787
2.34289
2.71014
3.08241
3.46388
3.86372
4.3021
4.82345
5.5274
6.65794
0.180266
0.540959
0.90214
1.26414
1.62729
1.99199
2.35872
2.72828
3.10214
3.48346
3.87944
4.30696
4.80687
5.48155
6.60506
0.181307
0.5441
0.907421
1.27162
1.63702
2.00394
2.37267
2.7435
3.11675
3.49294
3.87336
4.26174
4.66905
5.12421
5.66631
0.182233
0.546892
0.912127
1.2783
1.64574
2.0147
2.38524
2.75713
3.12939
3.49955
3.86187
4.20355
4.49808
4.70668
4.91783
0.183029
0.549302
0.916212
1.28416
1.65348
2.02442
2.39696
2.77056
3.14355
3.51168
3.86482
4.17831
4.38686
4.28757
3.09022
0.183683
0.55129
0.91961
1.2891
1.66016
2.03311
2.40802
2.78451
3.16114
3.53426
3.89541
4.22613
4.48948
4.63114
4.72318
0.184177
0.5528
0.922228
1.29299
1.66559
2.0405
2.41806
2.79842
3.18124
3.56523
3.94722
4.32092
4.6767
5.00935
5.34684
0.184489
0.553769
0.923952
1.29565
1.66948
2.04611
2.42624
2.81069
3.20059
3.59763
4.00488
4.42835
4.88011
5.38436
5.99783
0.184599
0.554128
0.924655
1.29687
1.6715
2.04936
2.43148
2.81927
3.21504
3.62299
4.05135
4.51627
5.04718
5.6837
6.39967
0.184486
0.553813
0.924219
1.29645
1.67131
2.04973
2.43286
2.82239
3.2211
3.63425
4.07253
4.55854
5.14102
5.92804
7.18163
0.18413
0.552767
0.922544
1.29425
1.66872
2.04689
2.42988
2.81919
3.21719
3.62812
4.06067
4.53399
5.09294
5.84855
7.09907
0.183518
0.550947
0.919561
1.29017
1.66361
2.04077
2.42257
2.81004
3.20436
3.60705
4.0206
4.45016
4.90838
5.42556
6.03517
0.182639
0.548321
0.915222
1.28416
1.65598
2.03148
2.4114
2.7962
3.18577
3.5785
3.96951
4.34659
4.68297
4.93856
5.20692
0.181484
0.544865
0.909492
1.27621
1.64584
2.01919
2.39689
2.77913
3.16503
3.5512
3.92819
4.27144
4.51374
4.44284
3.22697
0.180046
0.54056
0.902342
1.26626
1.63318
2.00395
2.3793
2.75957
3.14417
3.53032
3.91039
4.26658
4.56207
4.74236
4.88464
0.178322
0.535389
0.893738
1.25426
1.61788
1.98559
2.35836
2.73707
3.12229
3.5137
3.90927
4.30404
4.69046
5.06845
5.48292
0.176308
0.529343
0.883652
1.24014
1.59981
1.96377
2.33335
2.71013
3.09615
3.49424
3.90877
4.34744
4.82481
5.36933
6.04181
0.174008
0.522427
0.872078
1.22386
1.57879
1.93811
2.30339
2.67683
3.06169
3.46339
3.89159
4.36411
4.91261
5.58149
6.36314
0.171433
0.514671
0.85905
1.20542
1.55477
1.90836
2.26785
2.63565
3.01558
3.4142
3.8437
4.32814
4.9169
5.7155
6.96902
0.168604
0.506135
0.844664
1.18494
1.52786
1.87457
2.22658
2.58611
2.95654
3.3436
3.75774
4.21987
4.77555
5.53374
6.79123
0.165553
0.49692
0.829086
1.16266
1.49837
1.83714
2.18016
2.52904
2.88602
3.25425
3.63853
4.04678
4.49363
5.00539
5.58561
0.162327
0.487162
0.812552
1.13893
1.4668
1.7968
2.12971
2.46641
2.80771
3.1538
3.50275
3.84701
4.1667
4.42962
4.72213
0.15898
0.47703
0.795357
1.11418
1.43378
1.75449
2.07667
2.40062
2.72613
3.05141
3.37029
3.66444
3.87923
3.83343
2.80169
0.155575
0.466717
0.777835
1.08893
1.40003
1.71119
2.02247
2.33381
2.64473
2.95349
3.25508
3.53712
3.77275
3.92203
4.05603
0.15218
0.456431
0.760347
1.06371
1.36628
1.66786
1.96826
2.26732
2.56488
2.86056
3.15351
3.44213
3.72627
4.02135
4.41327
0.148866
0.446386
0.743265
1.03905
1.33325
1.62539
1.91503
2.20193
2.48635
2.76957
3.05499
3.35037
3.67226
4.05352
4.54868
0.145701
0.436798
0.726961
1.01551
1.30169
1.58469
1.86373
2.13831
2.4087
2.67707
2.94959
3.24028
3.57707
4.00666
4.5753
0.14275
0.427866
0.711795
0.99364
1.27237
1.54677
1.81558
2.07762
2.33248
2.58173
2.83161
3.09825
3.41749
3.86335
4.58114
0.14007
0.419767
0.698088
0.973958
1.24606
1.51278
1.77215
2.02197
2.26019
2.48597
2.70206
2.91978
3.17003
3.53127
4.23101
0.137699
0.412631
0.686098
0.956908
1.22353
1.48393
1.73539
1.97439
2.19655
2.39698
2.57141
2.71879
2.84555
2.96422
3.0261
0.135655
0.406519
0.675964
0.942782
1.20533
1.46129
1.70731
1.93853
2.14803
2.32608
2.45958
2.53221
2.52673
2.43667
2.34353
0.133924
0.401397
0.667663
0.931632
1.19173
1.44559
1.68952
1.91778
2.12137
2.28612
2.39007
2.39996
2.26667
1.91132
1.12762
0.132455
0.397118
0.660963
0.923178
1.18248
1.43678
1.68262
1.91419
2.12169
2.2884
2.38592
2.36722
2.16084
1.6835
0.933643
0.131159
0.39341
0.655401
0.916751
1.17671
1.43387
1.68564
1.92733
2.15034
2.33875
2.46251
2.46489
2.24321
1.64498
0.645075
0.129911
0.389885
0.650287
0.911295
1.1729
1.43471
1.69568
1.95345
2.20306
2.43403
2.62345
2.71824
2.58711
1.88542
-0.312519
0.128558
0.386065
0.644754
0.905431
1.16893
1.43613
1.70794
1.98525
2.26873
2.55821
2.85016
3.12854
3.32722
3.16491
1.37865
0.126933
0.381425
0.63784
0.897604
1.1624
1.43436
1.71639
2.01277
2.33029
2.68073
3.08637
3.5943
4.31792
5.57192
8.35361
8.18653
5.25989
3.98933
3.28134
2.79847
2.42078
2.09904
1.81018
1.54213
1.28797
1.04339
0.805545
0.572361
0.342251
0.113894
0.739175
2.70287
2.93444
2.77977
2.53823
2.28041
2.02355
1.77154
1.52477
1.28264
1.04439
0.809215
0.576382
0.345184
0.114955
-1.05374
1.3488
2.14776
2.33854
2.28931
2.13939
1.94471
1.7293
1.50419
1.27464
1.04324
0.811266
0.579269
0.347446
0.115793
0.0130333
1.10833
1.7834
2.064
2.11035
2.0295
1.88029
1.69383
1.48671
1.26793
1.04252
0.813335
0.582037
0.349592
0.116586
0.337303
1.1597
1.69298
1.95218
2.01977
1.96712
1.84176
1.67274
1.47733
1.26583
1.04441
0.81688
0.585607
0.352129
0.117496
0.709685
1.41186
1.79292
1.97348
2.01275
1.95526
1.83358
1.66999
1.47916
1.27063
1.05057
0.823032
0.590714
0.355472
0.118656
1.73087
1.88707
2.03212
2.093
2.07298
1.98801
1.85453
1.68617
1.49331
1.28346
1.06194
0.832515
0.597859
0.359914
0.120163
2.33602
2.37008
2.32984
2.26877
2.17835
2.05449
1.89971
1.7194
1.51928
1.3044
1.07881
0.845647
0.6073
0.365617
0.122071
3.45044
2.90476
2.64208
2.46502
2.30702
2.14246
1.96266
1.7664
1.55554
1.33282
1.10097
0.862396
0.619072
0.37262
0.124397
3.80763
3.243
2.89493
2.64812
2.4403
2.24107
2.03705
1.82359
1.60007
1.36759
1.12783
0.882463
0.633029
0.380861
0.127124
3.91683
3.43094
3.07754
2.80423
2.56769
2.34302
2.11805
1.88779
1.65085
1.40747
1.15861
0.905379
0.648902
0.3902
0.130208
3.95048
3.52696
3.2046
2.93489
2.6869
2.44521
2.20276
1.95668
1.70613
1.4512
1.19244
0.930575
0.666336
0.400447
0.133589
3.91198
3.55283
3.29517
3.05055
2.8018
2.54795
2.29002
2.02873
1.76449
1.49763
1.22848
0.957444
0.684934
0.411377
0.137195
3.6284
3.50828
3.37678
3.16918
2.92029
2.65355
2.37965
2.10288
1.82473
1.54568
1.26586
0.985363
0.704279
0.422752
0.140949
2.5399
3.47174
3.51129
3.31659
3.05126
2.76415
2.47132
2.17802
1.88564
1.59431
1.30376
1.01372
0.723953
0.434332
0.144772
4.33197
4.05495
3.80854
3.51316