/*--------------------------------*- C++ -*----------------------------------*\
| =========                 |                                                 |
| \\      /  F ield         | OpenFOAM: The Open Source CFD Toolbox           |
|  \\    /   O peration     | Version:  5.x                                   |
|   \\  /    A nd           | Web:      www.OpenFOAM.org                      |
|    \\/     M anipulation  |                                                 |
\*---------------------------------------------------------------------------*/
FoamFile
{
    version     2.0;
    format      ascii;
    class       volScalarField;
    location    "4.8";
    object      gradTx;
}
// * * * * * * * * * * * * * * * * * * * * * * * * * * * * * * * * * * * * * //

dimensions      [0 -1 0 1 0 0 0];

internalField   nonuniform List<scalar> 
6300
(
-51.8565
-51.8382
-51.8016
-51.7466
-51.6729
-51.5805
-51.4693
-51.3395
-51.1914
-51.0258
-50.8437
-50.6465
-50.4358
-50.213
-49.9794
-51.8751
-51.8569
-51.8205
-51.7656
-51.6921
-51.5997
-51.4883
-51.3581
-51.2093
-51.0427
-50.8593
-50.6605
-50.4482
-50.2242
-49.99
-51.9124
-51.8944
-51.8582
-51.8037
-51.7305
-51.6382
-51.5267
-51.3957
-51.2456
-51.0768
-50.8906
-50.6885
-50.4729
-50.246
-50.0103
-51.968
-51.9503
-51.9148
-51.8609
-51.7883
-51.6965
-51.5848
-51.4529
-51.3008
-51.1288
-50.9381
-50.7306
-50.5091
-50.2771
-50.0383
-52.0418
-52.0246
-51.9899
-51.9372
-51.8659
-51.775
-51.6636
-51.5309
-51.3763
-51.2
-51.0029
-50.7871
-50.5563
-50.3156
-50.0705
-52.1333
-52.1168
-52.0835
-52.0327
-51.9634
-51.8743
-51.7641
-51.6311
-51.4741
-51.2925
-51.0867
-50.8591
-50.614
-50.3587
-50.1022
-52.2415
-52.2262
-52.1949
-52.147
-52.0811
-51.9953
-51.8877
-51.7556
-51.5969
-51.4095
-51.1929
-50.9488
-50.6824
-50.4036
-50.1263
-52.3656
-52.3518
-52.3235
-52.2798
-52.219
-52.1387
-52.036
-51.9074
-51.7488
-51.5563
-51.3271
-51.0612
-50.7637
-50.4474
-50.1333
-52.504
-52.4922
-52.468
-52.4301
-52.3767
-52.3049
-52.2108
-52.0895
-51.9349
-51.7401
-51.4984
-51.2056
-50.8643
-50.4892
-50.1113
-52.6546
-52.6454
-52.6265
-52.5965
-52.5533
-52.4937
-52.4132
-52.3054
-52.1618
-51.9713
-51.721
-51.3989
-50.9992
-50.534
-50.0465
-52.8148
-52.8089
-52.7965
-52.7764
-52.7466
-52.7039
-52.6433
-52.5576
-52.4358
-52.2625
-52.016
-51.6701
-51.1999
-50.6015
-49.9261
-52.9813
-52.9792
-52.9746
-52.9665
-52.9533
-52.9323
-52.8989
-52.8461
-52.7619
-52.6272
-52.4108
-52.0657
-51.5293
-50.7463
-49.7469
-53.1504
-53.1525
-53.1566
-53.1622
-53.1683
-53.1734
-53.1745
-53.1663
-53.139
-53.0738
-52.9346
-52.6529
-52.1055
-51.1079
-49.535
-53.3177
-53.3243
-53.3376
-53.3577
-53.3847
-53.4188
-53.4597
-53.506
-53.5542
-53.5945
-53.6012
-53.5062
-53.1324
-52.0456
-49.4379
-53.4789
-53.4898
-53.5122
-53.5466
-53.5946
-53.658
-53.7397
-53.8442
-53.9776
-54.1492
-54.3696
-54.6389
-54.8728
-54.505
-50.3657
-49.7568
-49.5465
-49.3281
-49.1004
-48.8615
-48.6091
-48.3408
-48.0543
-47.7475
-47.4191
-47.0685
-46.6956
-46.3015
-45.8875
-45.4557
-45.0085
-44.5485
-44.0785
-43.6014
-43.1201
-42.6375
-42.1567
-41.6804
-41.2112
-40.7513
-40.3027
-39.8668
-39.4447
-39.0369
-38.6438
-38.265
-37.9
-37.5479
-37.2077
-36.878
-36.5574
-36.2447
-35.9385
-35.6375
-35.3408
-35.0471
-34.7556
-34.4656
-34.1766
-33.8885
-33.6014
-33.316
-33.0334
-32.7549
-32.482
-32.2165
-31.9599
-31.7139
-31.4797
-31.2586
-31.0515
-30.8589
-30.6812
-30.5186
-30.3711
-30.2383
-30.1201
-30.0162
-29.9263
-29.8502
-29.7878
-29.7391
-29.7039
-29.6822
-29.6741
-29.6794
-29.6982
-29.7305
-29.7764
-29.8358
-29.9089
-29.9956
-30.0957
-30.2089
-30.3351
-30.4738
-30.6246
-30.7868
-30.9597
-31.1426
-31.3344
-31.5336
-31.7388
-31.948
-32.1593
-49.7676
-49.5584
-49.342
-49.117
-48.8814
-48.6325
-48.3675
-48.0838
-47.779
-47.4516
-47.1008
-46.7267
-46.3304
-45.9135
-45.4783
-45.0273
-44.5633
-44.0892
-43.6077
-43.1221
-42.6354
-42.1506
-41.6705
-41.198
-40.7354
-40.2846
-39.8472
-39.4242
-39.0162
-38.6233
-38.2453
-37.8816
-37.5311
-37.1927
-36.8649
-36.5463
-36.2354
-35.931
-35.6317
-35.3364
-35.044
-34.7535
-34.4642
-34.1754
-33.8869
-33.5989
-33.3121
-33.0275
-32.7467
-32.4714
-32.2034
-31.9446
-31.6966
-31.4608
-31.2384
-31.0303
-30.8372
-30.6593
-30.4968
-30.3495
-30.2171
-30.0993
-29.9957
-29.9061
-29.8302
-29.7679
-29.7192
-29.6841
-29.6625
-29.6543
-29.6596
-29.6784
-29.7107
-29.7564
-29.8159
-29.889
-29.9759
-30.0763
-30.19
-30.3167
-30.4561
-30.6077
-30.7709
-30.9451
-31.1295
-31.3232
-31.5247
-31.7325
-31.9447
-32.1591
-49.7882
-49.5812
-49.3688
-49.1495
-48.9208
-48.6794
-48.4217
-48.1441
-47.8436
-47.5182
-47.167
-46.7902
-46.3893
-45.9663
-45.524
-45.0653
-44.5932
-44.1106
-43.6205
-43.1262
-42.6309
-42.1378
-41.6502
-41.171
-40.7028
-40.2477
-39.8072
-39.3824
-38.9738
-38.5816
-38.2053
-37.8443
-37.4972
-37.1626
-36.8388
-36.5241
-36.2171
-35.9162
-35.6201
-35.3278
-35.0381
-34.7499
-34.462
-34.1737
-33.8846
-33.5947
-33.3048
-33.0161
-32.7305
-32.4501
-32.1771
-31.9136
-31.6615
-31.4224
-31.1974
-30.9875
-30.7933
-30.6151
-30.4528
-30.3061
-30.1746
-30.0577
-29.9549
-29.8658
-29.7902
-29.7281
-29.6795
-29.6444
-29.6229
-29.6148
-29.6202
-29.6388
-29.6709
-29.7165
-29.7758
-29.849
-29.9362
-30.0372
-30.1519
-30.2798
-30.4205
-30.5735
-30.7386
-30.9152
-31.1027
-31.3001
-31.5063
-31.7195
-31.9377
-32.1585
-49.816
-49.612
-49.406
-49.196
-48.9789
-48.7502
-48.5048
-48.2377
-47.9446
-47.6225
-47.2705
-46.889
-46.4803
-46.0474
-45.5938
-45.1231
-44.6385
-44.1431
-43.6399
-43.1322
-42.6234
-42.1175
-41.618
-41.1284
-40.6516
-40.1899
-39.7449
-39.3175
-38.9082
-38.5171
-38.1437
-37.787
-37.4455
-37.1171
-36.7997
-36.4913
-36.19
-35.8944
-35.6034
-35.3157
-35.0303
-34.7457
-34.4605
-34.1733
-33.8834
-33.5906
-33.2956
-33.0002
-32.7067
-32.418
-32.137
-31.8661
-31.6077
-31.3634
-31.1345
-30.9219
-30.7262
-30.5477
-30.3861
-30.2407
-30.1109
-29.9956
-29.8941
-29.8058
-29.7305
-29.6685
-29.62
-29.585
-29.5636
-29.5557
-29.5611
-29.5796
-29.6112
-29.6563
-29.7153
-29.7885
-29.8762
-29.9782
-30.0943
-30.2239
-30.3665
-30.5218
-30.6894
-30.8693
-31.061
-31.2641
-31.4773
-31.6989
-31.9265
-32.1573
-49.8466
-49.6464
-49.4493
-49.2534
-49.0542
-48.8456
-48.6198
-48.3693
-48.0876
-47.7705
-47.4166
-47.0275
-46.6065
-46.1586
-45.6887
-45.2012
-44.6997
-44.1871
-43.6661
-43.1399
-42.6124
-42.0882
-41.5718
-41.0676
-40.5791
-40.1085
-39.6575
-39.2267
-38.8167
-38.4274
-38.0583
-37.7082
-37.375
-37.0558
-36.7478
-36.4482
-36.1548
-35.8663
-35.5818
-35.3004
-35.0212
-34.7424
-34.4617
-34.177
-33.8864
-33.5895
-33.287
-32.9814
-32.676
-32.3749
-32.082
-31.8007
-31.5334
-31.282
-31.0478
-30.8317
-30.6343
-30.4557
-30.2956
-30.1528
-30.0259
-29.9134
-29.8138
-29.7266
-29.6515
-29.5893
-29.5405
-29.5056
-29.4846
-29.4772
-29.4828
-29.501
-29.5318
-29.5758
-29.6339
-29.7068
-29.7951
-29.8986
-30.0169
-30.149
-30.294
-30.4517
-30.6221
-30.8057
-31.0027
-31.2131
-31.4358
-31.6691
-31.9101
-32.1554
-49.8735
-49.6766
-49.4914
-49.3157
-49.1438
-48.9661
-48.7709
-48.5462
-48.282
-47.9718
-47.6142
-47.2121
-46.772
-46.3019
-45.8093
-45.3
-44.7775
-44.2436
-43.7002
-43.1499
-42.5972
-42.0479
-41.5085
-40.9847
-40.4809
-39.9994
-39.5411
-39.1065
-38.6956
-38.3088
-37.9459
-37.6053
-37.2844
-36.9788
-36.6841
-36.3963
-36.1128
-35.8325
-35.5556
-35.2823
-35.0117
-34.7418
-34.4689
-34.189
-33.8986
-33.5963
-33.283
-32.9621
-32.6391
-32.3199
-32.0103
-31.7147
-31.436
-31.1757
-30.935
-30.7145
-30.515
-30.337
-30.1798
-30.0417
-29.9201
-29.8122
-29.7156
-29.6294
-29.5538
-29.4903
-29.4406
-29.4057
-29.3857
-29.3796
-29.386
-29.4038
-29.4331
-29.4747
-29.5306
-29.6025
-29.6915
-29.7975
-29.9192
-30.0548
-30.2029
-30.3629
-30.5355
-30.7222
-30.9247
-31.1437
-31.3788
-31.6278
-31.887
-32.1522
-49.8862
-49.6906
-49.5201
-49.3733
-49.2422
-49.1123
-48.965
-48.7806
-48.5429
-48.2419
-47.8761
-47.4519
-46.9812
-46.478
-45.9545
-45.4183
-44.8719
-44.3143
-43.7445
-43.1637
-42.5773
-41.9938
-41.423
-40.8735
-40.3509
-39.857
-39.3911
-38.9521
-38.5402
-38.1562
-37.8014
-37.4745
-37.1717
-36.8863
-36.6106
-36.3384
-36.0662
-35.7941
-35.5245
-35.2601
-35.0014
-34.7456
-34.4863
-34.216
-33.928
-33.6189
-33.2897
-32.946
-32.5965
-32.2511
-31.9184
-31.6044
-31.3118
-31.0413
-30.7927
-30.5667
-30.3647
-30.188
-30.0362
-29.9065
-29.7943
-29.6943
-29.6022
-29.5165
-29.4384
-29.3713
-29.319
-29.2841
-29.2663
-29.2635
-29.2722
-29.2899
-29.3161
-29.3528
-29.4038
-29.4731
-29.5631
-29.6733
-29.801
-29.9424
-30.0942
-30.2556
-30.4281
-30.6156
-30.8223
-31.0509
-31.3014
-31.5711
-31.8551
-32.1471
-49.8691
-49.669
-49.5152
-49.4087
-49.3392
-49.2841
-49.2128
-49.0923
-48.8953
-48.6058
-48.2227
-47.759
-47.2376
-46.6838
-46.1184
-45.5517
-44.9827
-44.4031
-43.8049
-43.186
-42.5536
-41.9217
-41.307
-40.724
-40.1799
-39.6745
-39.2025
-38.7593
-38.3445
-37.9621
-37.6167
-37.3094
-37.0343
-36.7798
-36.5323
-36.2806
-36.0198
-35.7522
-35.486
-35.2296
-34.9871
-34.7542
-34.5196
-34.2685
-33.9879
-33.6705
-33.3174
-32.9381
-32.548
-32.1637
-31.7994
-31.4631
-31.1559
-30.875
-30.6177
-30.3841
-30.1779
-30.003
-29.8605
-29.746
-29.6508
-29.5646
-29.4795
-29.3924
-29.3068
-29.2305
-29.1722
-29.1373
-29.1252
-29.1304
-29.1452
-29.1634
-29.1837
-29.2099
-29.2503
-29.3136
-29.405
-29.5235
-29.6628
-29.8144
-29.9715
-30.1317
-30.2987
-30.481
-30.6879
-30.9259
-31.1959
-31.4935
-31.811
-32.1397
-49.7993
-49.5808
-49.4425
-49.3914
-49.4157
-49.4799
-49.5317
-49.5146
-49.3815
-49.105
-48.6855
-48.1497
-47.541
-46.9068
-46.2843
-45.6888
-45.1091
-44.5193
-43.8953
-43.2283
-42.5296
-41.825
-41.1459
-40.5185
-39.9537
-39.444
-38.9727
-38.5259
-38.1027
-37.7147
-37.3774
-37.098
-36.8674
-36.6636
-36.4602
-36.2362
-35.983
-35.7085
-35.4332
-35.1794
-34.9591
-34.7655
-34.5766
-34.3636
-34.1008
-33.7733
-33.3826
-32.9459
-32.4909
-32.0476
-31.6401
-31.2796
-30.9619
-30.6747
-30.4082
-30.1621
-29.9456
-29.7711
-29.6441
-29.5575
-29.494
-29.4332
-29.3591
-29.266
-29.1616
-29.0634
-28.9914
-28.9572
-28.9589
-28.9832
-29.0127
-29.0338
-29.0422
-29.0461
-29.0633
-29.1134
-29.2076
-29.3434
-29.5064
-29.6783
-29.8438
-29.9976
-30.1471
-30.3104
-30.5083
-30.7546
-31.0503
-31.3866
-31.7506
-32.1294
-49.6427
-49.3776
-49.2443
-49.2656
-49.4351
-49.6938
-49.95
-50.1046
-50.0743
-49.8104
-49.3163
-48.6457
-47.8815
-47.1132
-46.412
-45.8033
-45.2504
-44.6851
-44.0478
-43.3167
-42.5143
-41.6917
-40.9108
-40.2232
-39.6482
-39.1588
-38.7077
-38.2588
-37.8103
-37.3945
-37.0549
-36.8164
-36.6621
-36.5468
-36.418
-36.2338
-35.9771
-35.6662
-35.3494
-35.0811
-34.8926
-34.77
-34.6681
-34.5305
-34.3069
-33.9673
-33.5139
-32.98
-32.4168
-31.8797
-31.4132
-31.0345
-30.7237
-30.4445
-30.1693
-29.8971
-29.6529
-29.4706
-29.3695
-29.3355
-29.333
-29.3206
-29.2657
-29.1558
-29.0069
-28.8586
-28.7557
-28.7253
-28.7598
-28.828
-28.8921
-28.9221
-28.9069
-28.8627
-28.8288
-28.8492
-28.9503
-29.1235
-29.3369
-29.5508
-29.7328
-29.8694
-29.9752
-30.0896
-30.2586
-30.5116
-30.846
-31.2396
-31.6683
-32.1154
-49.3498
-48.9849
-48.8238
-48.9268
-49.326
-49.9116
-50.5147
-50.9612
-51.1039
-50.8476
-50.2014
-49.2768
-48.2281
-47.2235
-46.4064
-45.8378
-45.4097
-44.9551
-44.3354
-43.5081
-42.5284
-41.4987
-40.5416
-39.766
-39.2195
-38.8187
-38.4396
-37.9912
-37.471
-36.9648
-36.587
-36.4137
-36.4006
-36.4497
-36.4558
-36.3359
-36.0492
-35.6324
-35.196
-34.868
-34.731
-34.7446
-34.8113
-34.8213
-34.6798
-34.3251
-33.7611
-33.0562
-32.3049
-31.6102
-31.0598
-30.6914
-30.4398
-30.2084
-29.9262
-29.5914
-29.2707
-29.0532
-28.9978
-29.0681
-29.1862
-29.269
-29.2511
-29.1017
-28.8511
-28.5881
-28.4153
-28.3998
-28.5118
-28.6784
-28.8204
-28.8752
-28.8131
-28.6643
-28.5158
-28.4687
-28.5886
-28.8457
-29.1664
-29.469
-29.6869
-29.7851
-29.7906
-29.7902
-29.8873
-30.1514
-30.5561
-31.0415
-31.5595
-32.0955
-48.8433
-48.2993
-48.0237
-48.1619
-48.9493
-50.1043
-51.3053
-52.2555
-52.7084
-52.4467
-51.488
-50.087
-48.5116
-47.0642
-46.0435
-45.6704
-45.6073
-45.4632
-44.9225
-43.9193
-42.6147
-41.2015
-39.9113
-38.979
-38.5815
-38.4476
-38.2718
-37.8271
-37.1121
-36.3503
-35.8247
-35.7806
-36.0499
-36.4144
-36.6754
-36.6783
-36.3088
-35.6271
-34.8866
-34.3798
-34.3527
-34.6431
-35.0359
-35.3301
-35.3599
-34.9843
-34.2111
-33.199
-32.1117
-31.1328
-30.4441
-30.18
-30.1267
-30.0453
-29.7586
-29.2653
-28.7396
-28.4024
-28.4447
-28.7317
-29.0901
-29.3619
-29.4257
-29.193
-28.7128
-28.1873
-27.8483
-27.8903
-28.185
-28.5639
-28.8739
-28.9962
-28.8439
-28.4648
-28.0565
-27.8472
-28.029
-28.476
-29.0214
-29.509
-29.8128
-29.834
-29.6141
-29.3497
-29.2753
-29.5885
-30.1497
-30.7964
-31.4244
-32.0537
-47.9609
-47.2278
-46.6288
-46.4633
-48.0441
-50.2315
-52.4578
-54.2663
-55.3426
-55.0502
-53.412
-51.1492
-48.6112
-46.2911
-44.7487
-45.0573
-45.922
-46.5428
-46.1762
-44.7649
-42.858
-40.7279
-38.766
-37.4222
-37.5646
-38.137
-38.4914
-38.0527
-36.8208
-35.396
-34.3694
-34.6967
-35.5625
-36.5283
-37.2668
-37.557
-37.0184
-35.7064
-34.2407
-33.2012
-33.5174
-34.3939
-35.4027
-36.2196
-36.6239
-36.2159
-35.0053
-33.4501
-31.7622
-30.2375
-29.2167
-29.3648
-29.8538
-30.1776
-29.8882
-28.9857
-27.9367
-27.2047
-27.5388
-28.2923
-29.1181
-29.7542
-30.027
-29.64
-28.6395
-27.5174
-26.732
-27.0165
-27.7362
-28.5483
-29.1972
-29.512
-29.2006
-28.3071
-27.31
-26.6619
-27.087
-27.964
-28.9594
-29.8129
-30.3453
-30.2295
-29.5011
-28.6352
-28.1048
-28.6679
-29.6195
-30.5777
-31.2871
-31.9037
-46.1107
-45.9635
-44.6092
-42.2496
-46.2651
-50.3034
-54.2121
-57.3319
-59.948
-59.5922
-56.2357
-52.6081
-48.3974
-44.3983
-40.7887
-43.6438
-46.5883
-49.0446
-48.9348
-46.3243
-43.4232
-40.0123
-36.7306
-33.7256
-35.9286
-38.1409
-39.8531
-39.4207
-36.8077
-33.8684
-30.9647
-32.8374
-34.9311
-36.9696
-38.5038
-39.6295
-38.8418
-36.0073
-32.981
-30.0703
-31.8751
-33.9545
-36.0457
-37.7034
-39.0575
-38.6032
-36.2956
-33.8922
-31.1778
-28.6162
-26.3061
-28.0587
-29.8186
-31.1929
-30.9005
-28.9171
-26.6769
-24.4718
-26.0289
-27.7484
-29.419
-30.6694
-31.5779
-30.9702
-28.7411
-26.3625
-24.0747
-25.5159
-27.1542
-28.7673
-30.0011
-30.9294
-30.395
-28.2985
-26.0606
-23.931
-25.4941
-27.2808
-29.1015
-30.5789
-31.8109
-31.5067
-29.5858
-27.4375
-25.3592
-27.1877
-29.0796
-30.7169
-31.283
-31.1991
-40.1142
-46.4374
-44.038
-28.8568
-44.4539
-50.5622
-57.1029
-61.1235
-68.8334
-68.4557
-59.4504
-54.9071
-47.8793
-41.9454
-27.5199
-42.1022
-47.9579
-55.242
-55.2948
-48.3027
-44.7227
-39.1112
-34.2971
-22.53
-34.2797
-38.8652
-44.3033
-43.9293
-37.2645
-32.2898
-20.6823
-30.6599
-34.3797
-38.1374
-40.3295
-44.4573
-43.613
-36.5845
-31.5552
-20.149
-29.8376
-33.4982
-37.3131
-39.6242
-44.0952
-43.6593
-37.7237
-34.7818
-30.3735
-26.6327
-17.5451
-26.7417
-30.3388
-34.6078
-34.3474
-29.2183
-25.3661
-16.3213
-24.2847
-27.2744
-30.3248
-32.0767
-35.3116
-34.6347
-29.0578
-25.0763
-16.0472
-23.7311
-26.6078
-29.5324
-31.2442
-34.4526
-33.8384
-28.4929
-24.6548
-15.8822
-23.5787
-26.5484
-29.7375
-31.6979
-35.4878
-35.1117
-29.9974
-26.1385
-16.9873
-25.6158
-28.9059
-32.3982
-32.2142
-27.5774
-32.3914
-32.6412
-32.8835
-33.1152
-33.3333
-33.5353
-33.7195
-33.8845
-34.0295
-34.154
-34.2577
-34.3406
-34.4026
-34.444
-34.4646
-32.3947
-32.6481
-32.8939
-33.1284
-33.3489
-33.5527
-33.7382
-33.9041
-34.0496
-34.1744
-34.2782
-34.361
-34.423
-34.4642
-34.4848
-32.4013
-32.6622
-32.9149
-33.1554
-33.3806
-33.5881
-33.7761
-33.9437
-34.0902
-34.2153
-34.3192
-34.4019
-34.4637
-34.5048
-34.5253
-32.4114
-32.6843
-32.9476
-33.1972
-33.4296
-33.6425
-33.8342
-34.004
-34.1516
-34.2771
-34.3809
-34.4634
-34.5248
-34.5655
-34.5858
-32.4256
-32.7153
-32.9937
-33.2558
-33.4978
-33.7175
-33.9137
-34.086
-34.2347
-34.3603
-34.4637
-34.5454
-34.6061
-34.6463
-34.6663
-32.4446
-32.7573
-33.0558
-33.334
-33.588
-33.8157
-34.0166
-34.1912
-34.3404
-34.4655
-34.5677
-34.648
-34.7075
-34.7468
-34.7663
-32.4696
-32.813
-33.1376
-33.4359
-33.7039
-33.9403
-34.1455
-34.3213
-34.4698
-34.5931
-34.693
-34.7712
-34.8288
-34.8667
-34.8855
-32.5029
-32.8872
-33.2452
-33.5679
-33.8512
-34.0955
-34.3034
-34.4784
-34.6241
-34.7436
-34.8397
-34.9145
-34.9693
-35.0053
-35.0232
-32.5481
-32.9872
-33.3879
-33.7387
-34.0372
-34.2869
-34.4938
-34.6643
-34.8039
-34.9172
-35.0075
-35.0772
-35.1283
-35.1617
-35.1782
-32.6113
-33.1254
-33.5801
-33.9616
-34.2719
-34.5208
-34.7203
-34.8807
-35.0098
-35.1133
-35.1952
-35.2583
-35.3044
-35.3345
-35.3495
-32.7016
-33.3228
-33.8453
-34.2554
-34.5676
-34.8041
-34.9859
-35.1281
-35.2408
-35.3305
-35.4014
-35.4561
-35.496
-35.5222
-35.5352
-32.8316
-33.6183
-34.2223
-34.6466
-34.9382
-35.1422
-35.2911
-35.4048
-35.4944
-35.5662
-35.6234
-35.668
-35.701
-35.7227
-35.7335
-33.0185
-34.0959
-34.7786
-35.1694
-35.3951
-35.5349
-35.6315
-35.7054
-35.7656
-35.8159
-35.8577
-35.8913
-35.9167
-35.9337
-35.9423
-33.3299
-34.9676
-35.6277
-35.8573
-35.9366
-35.9704
-35.9946
-36.0196
-36.0465
-36.0739
-36.0997
-36.1223
-36.1403
-36.1528
-36.1591
-34.3333
-36.8157
-36.9067
-36.6958
-36.5224
-36.4147
-36.3568
-36.3318
-36.3268
-36.3331
-36.3446
-36.3574
-36.369
-36.3775
-36.382
-53.6169
-53.6316
-53.6615
-53.7079
-53.7732
-53.8607
-53.9759
-54.1277
-54.331
-54.6132
-55.0296
-55.7104
-57.0206
-60.2167
-70.4869
-53.7326
-53.7501
-53.786
-53.8418
-53.9203
-54.026
-54.1655
-54.3499
-54.5976
-54.9418
-55.4465
-56.248
-57.6642
-60.4963
-66.797
-53.8364
-53.8563
-53.897
-53.9602
-54.049
-54.1679
-54.3241
-54.5282
-54.7974
-55.1591
-55.6578
-56.3596
-57.3248
-58.3673
-57.596
-53.9267
-53.9484
-53.9926
-54.0612
-54.157
-54.2843
-54.4494
-54.6614
-54.9329
-55.2816
-55.7286
-56.2888
-56.9319
-57.4979
-57.7383
-54.0022
-54.0251
-54.0717
-54.1436
-54.2433
-54.3746
-54.5424
-54.7532
-55.015
-55.3362
-55.7218
-56.1605
-56.5928
-56.8549
-56.5539
-54.0622
-54.0857
-54.1336
-54.207
-54.3081
-54.4398
-54.6056
-54.8096
-55.0558
-55.3466
-55.6792
-56.0367
-56.3722
-56.6035
-56.6459
-54.1061
-54.1298
-54.178
-54.2515
-54.3519
-54.4815
-54.6423
-54.8365
-55.0656
-55.3286
-55.6205
-55.928
-56.2239
-56.484
-56.7631
-54.1338
-54.1574
-54.205
-54.2775
-54.3759
-54.5016
-54.6558
-54.8393
-55.0517
-55.291
-55.5524
-55.8275
-56.1003
-56.352
-56.4917
-54.1454
-54.1686
-54.2152
-54.2859
-54.3813
-54.5022
-54.649
-54.8217
-55.019
-55.2385
-55.4764
-55.7284
-55.9915
-56.2984
-56.8915
-54.1412
-54.1638
-54.2091
-54.2775
-54.3693
-54.485
-54.6244
-54.7869
-54.9709
-55.1736
-55.3919
-55.6216
-55.852
-56.0469
-55.9337
-54.1217
-54.1435
-54.1872
-54.253
-54.3411
-54.4515
-54.5838
-54.737
-54.9095
-55.0984
-55.3009
-55.5144
-55.7373
-56.0098
-56.6586
-54.0873
-54.1083
-54.1503
-54.2135
-54.2977
-54.403
-54.5286
-54.6737
-54.8364
-55.0141
-55.2039
-55.4005
-55.5882
-55.7121
-55.4122
-54.0387
-54.0588
-54.0991
-54.1596
-54.2401
-54.3405
-54.4601
-54.5981
-54.7528
-54.922
-55.1034
-55.2928
-55.4834
-55.7093
-56.3712
-53.9764
-53.9957
-54.0343
-54.0921
-54.169
-54.2648
-54.379
-54.5107
-54.6588
-54.822
-54.9988
-55.1844
-55.3539
-55.4045
-54.8049
-53.901
-53.9195
-53.9563
-54.0116
-54.0851
-54.1766
-54.2857
-54.4117
-54.5542
-54.7129
-54.8894
-55.087
-55.307
-55.5518
-55.7991
-53.8131
-53.8307
-53.866
-53.9188
-53.989
-54.0764
-54.1806
-54.3013
-54.4381
-54.5919
-54.7669
-54.974
-55.243
-55.6979
-56.9612
-53.7132
-53.7301
-53.7638
-53.8142
-53.8813
-53.9648
-54.0643
-54.1794
-54.31
-54.4568
-54.6233
-54.8181
-55.0498
-55.2833
-54.9569
-53.6019
-53.618
-53.6502
-53.6984
-53.7625
-53.8422
-53.9371
-54.0468
-54.1706
-54.3083
-54.4615
-54.6364
-54.8554
-55.2582
-56.7619
-53.4797
-53.4951
-53.5258
-53.5719
-53.633
-53.7092
-53.7998
-53.9042
-54.0213
-54.1494
-54.286
-54.4242
-54.5333
-54.4691
-53.2903
-53.3471
-53.3618
-53.3911
-53.4351
-53.4936
-53.5663
-53.6529
-53.7527
-53.8642
-53.985
-54.1108
-54.232
-54.3315
-54.4549
-55.3133
-53.2046
-53.2186
-53.2466
-53.2886
-53.3444
-53.414
-53.497
-53.5928
-53.7004
-53.8176
-53.9402
-54.0548
-54.113
-53.9307
-52.6099
-53.0526
-53.0659
-53.0926
-53.1327
-53.186
-53.2526
-53.3322
-53.4247
-53.5297
-53.6469
-53.7763
-53.9169
-54.0613
-54.1979
-54.3047
-52.8916
-52.9043
-52.9297
-52.9679
-53.0187
-53.0823
-53.1586
-53.2478
-53.3504
-53.4681
-53.606
-53.7764
-54.015
-54.4863
-56.0702
-52.722
-52.7341
-52.7582
-52.7945
-52.8428
-52.9033
-52.9761
-53.0614
-53.1604
-53.2758
-53.4143
-53.5884
-53.8071
-54.0027
-53.3671
-52.5442
-52.5557
-52.5786
-52.613
-52.6588
-52.7161
-52.7848
-52.8654
-52.9588
-53.0678
-53.1993
-53.3692
-53.6153
-54.097
-55.7843
-52.3588
-52.3696
-52.3913
-52.4238
-52.467
-52.521
-52.5854
-52.6605
-52.7463
-52.8444
-52.9588
-53.0971
-53.2599
-53.3545
-52.4112
-52.166
-52.1763
-52.1968
-52.2274
-52.2681
-52.3187
-52.3788
-52.4478
-52.5252
-52.61
-52.7028
-52.8079
-52.9519
-53.3332
-55.3387
-51.9664
-51.9761
-51.9954
-52.0243
-52.0626
-52.11
-52.1659
-52.2294
-52.2986
-52.3705
-52.4394
-52.4916
-52.4791
-52.1846
-50.223
-51.7603
-51.7694
-51.7876
-51.8149
-51.851
-51.8955
-51.9478
-52.0068
-52.0701
-52.1334
-52.1888
-52.2201
-52.202
-52.1944
-53.1749
-51.548
-51.5566
-51.5738
-51.5996
-51.6337
-51.6757
-51.7252
-51.7811
-51.8413
-51.9022
-51.956
-51.9828
-51.9177
-51.5183
-49.5998
-51.3299
-51.3381
-51.3544
-51.3787
-51.411
-51.451
-51.4982
-51.5522
-51.6119
-51.6761
-51.7431
-51.8094
-51.8654
-51.8977
-51.8948
-51.1063
-51.1141
-51.1295
-51.1526
-51.1832
-51.2213
-51.2666
-51.3192
-51.3793
-51.4484
-51.5316
-51.6431
-51.8294
-52.302
-54.1852
-50.8776
-50.8849
-50.8995
-50.9214
-50.9505
-50.9867
-51.03
-51.0809
-51.1403
-51.2113
-51.3013
-51.4249
-51.5944
-51.7273
-50.8269
-50.644
-50.6509
-50.6647
-50.6854
-50.7129
-50.7472
-50.7883
-50.8365
-50.8931
-50.9611
-51.0488
-51.1746
-51.3849
-51.8705
-53.7948
-50.4057
-50.4122
-50.4253
-50.4449
-50.4709
-50.5032
-50.5416
-50.5863
-50.6378
-50.6976
-50.7707
-50.8656
-50.984
-51.0151
-49.8103
-50.163
-50.1692
-50.1816
-50.2001
-50.2246
-50.2549
-50.2907
-50.3314
-50.3764
-50.4252
-50.4782
-50.5404
-50.6438
-51.0183
-53.2735
-49.9161
-49.922
-49.9338
-49.9514
-49.9745
-50.003
-50.0363
-50.0733
-50.1124
-50.1501
-50.1801
-50.1864
-50.1151
-49.716
-47.3926
-49.6653
-49.6709
-49.6821
-49.6988
-49.7209
-49.7479
-49.7793
-49.8138
-49.8491
-49.8807
-49.8992
-49.8862
-49.814
-49.7504
-50.8046
-49.4107
-49.416
-49.4268
-49.4428
-49.4639
-49.4899
-49.5201
-49.5536
-49.5884
-49.6204
-49.6409
-49.627
-49.5068
-49.0088
-46.8018
-49.1524
-49.1576
-49.1679
-49.1833
-49.2037
-49.2289
-49.2586
-49.2924
-49.3294
-49.3684
-49.4072
-49.4417
-49.462
-49.4543
-49.41
-48.8907
-48.8957
-48.9056
-48.9205
-48.9403
-48.9649
-48.9944
-49.0289
-49.0691
-49.1166
-49.177
-49.2661
-49.4366
-49.9255
-51.9859
-48.6256
-48.6304
-48.64
-48.6544
-48.6736
-48.6976
-48.7267
-48.7615
-48.8034
-48.856
-48.9276
-49.0339
-49.1901
-49.3056
-48.2781
-48.3573
-48.3619
-48.3712
-48.3851
-48.4036
-48.4269
-48.4552
-48.4891
-48.5302
-48.5824
-48.6545
-48.767
-48.9719
-49.4796
-51.5688
-48.0858
-48.0903
-48.0992
-48.1126
-48.1304
-48.1528
-48.1797
-48.2115
-48.2492
-48.295
-48.354
-48.4359
-48.5434
-48.5556
-47.2133
-47.8113
-47.8156
-47.8242
-47.8371
-47.8542
-47.8755
-47.9008
-47.9299
-47.9626
-47.9984
-48.038
-48.0869
-48.1811
-48.5724
-51.0205
-47.5339
-47.538
-47.5463
-47.5587
-47.5751
-47.5954
-47.6192
-47.6458
-47.6736
-47.6994
-47.7161
-47.7063
-47.6124
-47.1612
-44.6094
-47.2536
-47.2576
-47.2656
-47.2776
-47.2934
-47.313
-47.3358
-47.3609
-47.3861
-47.4067
-47.4128
-47.3842
-47.2916
-47.2089
-48.3432
-46.9706
-46.9745
-46.9822
-46.9938
-47.0092
-47.0283
-47.0507
-47.0757
-47.1016
-47.1242
-47.1341
-47.1063
-46.9638
-46.4116
-44.0023
-46.685
-46.6887
-46.6962
-46.7075
-46.7225
-46.7413
-46.7639
-46.79
-46.8192
-46.8505
-46.8816
-46.9082
-46.9205
-46.904
-46.8499
-46.3967
-46.4003
-46.4076
-46.4185
-46.4331
-46.4518
-46.4746
-46.5021
-46.5354
-46.5769
-46.6327
-46.7198
-46.8972
-47.4228
-49.6597
-46.106
-46.1094
-46.1164
-46.1269
-46.1411
-46.1593
-46.182
-46.2101
-46.2458
-46.2934
-46.362
-46.4689
-46.6319
-46.7531
-45.6344
-45.8129
-45.8161
-45.8227
-45.8327
-45.8463
-45.8637
-45.8856
-45.9129
-45.948
-45.9953
-46.0649
-46.1789
-46.3955
-46.9447
-49.2207
-45.5174
-45.5205
-45.5267
-45.536
-45.5487
-45.565
-45.5853
-45.6103
-45.6415
-45.6818
-45.737
-45.8176
-45.9281
-45.9372
-44.4724
-45.2198
-45.2227
-45.2284
-45.237
-45.2487
-45.2636
-45.2818
-45.3035
-45.3288
-45.3578
-45.3914
-45.4356
-45.531
-45.9531
-48.6225
-44.9202
-44.9228
-44.928
-44.9358
-44.9464
-44.9597
-44.9758
-44.9941
-45.0134
-45.0307
-45.0385
-45.0178
-44.907
-44.4084
-41.6189
-44.6188
-44.6211
-44.6257
-44.6327
-44.6421
-44.654
-44.6682
-44.684
-44.6995
-44.7101
-44.7052
-44.6627
-44.5522
-44.4546
-45.6867
-44.3157
-44.3177
-44.3217
-44.3278
-44.3361
-44.3467
-44.3595
-44.374
-44.3889
-44.4002
-44.3978
-44.3548
-44.1883
-43.5774
-40.9435
-44.0112
-44.0129
-44.0162
-44.0214
-44.0285
-44.0378
-44.0495
-44.0638
-44.0808
-44.0997
-44.1185
-44.1325
-44.1329
-44.1048
-44.0397
-43.7055
-43.7067
-43.7093
-43.7134
-43.7192
-43.7271
-43.7377
-43.7519
-43.7713
-43.7991
-43.8423
-43.9197
-44.0972
-44.6579
-47.0917
-43.3987
-43.3996
-43.4014
-43.4042
-43.4085
-43.4146
-43.4233
-43.4362
-43.456
-43.4878
-43.5419
-43.6375
-43.7954
-43.9101
-42.6749
-43.0913
-43.0917
-43.0925
-43.094
-43.0963
-43.1001
-43.1061
-43.1159
-43.1323
-43.1608
-43.2125
-43.3118
-43.5235
-44.0994
-46.5618
-42.7835
-42.7834
-42.7831
-42.783
-42.7831
-42.7839
-42.7862
-42.7909
-42.8002
-42.8176
-42.8497
-42.9081
-42.9987
-42.9786
-41.3533
-42.4757
-42.475
-42.4736
-42.4716
-42.4692
-42.4668
-42.4645
-42.4629
-42.4625
-42.4639
-42.4681
-42.482
-42.5507
-42.9724
-45.8245
-42.1683
-42.1669
-42.1643
-42.1604
-42.1554
-42.1493
-42.1423
-42.1341
-42.1236
-42.108
-42.0794
-42.0177
-41.8575
-41.2781
-38.2263
-41.8616
-41.8596
-41.8557
-41.8498
-41.842
-41.8325
-41.8209
-41.8068
-41.7884
-41.761
-41.7132
-41.6218
-41.4552
-41.3006
-42.5625
-41.5562
-41.5536
-41.5482
-41.5403
-41.5299
-41.5168
-41.5012
-41.4826
-41.4595
-41.4278
-41.3768
-41.2779
-41.0446
-40.3391
-37.4929
-41.2525
-41.2491
-41.2425
-41.2325
-41.2193
-41.2029
-41.1836
-41.1615
-41.1365
-41.1079
-41.0732
-41.0272
-40.9619
-40.864
-40.733
-40.9509
-40.9469
-40.9388
-40.9267
-40.9107
-40.891
-40.868
-40.8425
-40.8161
-40.7919
-40.7766
-40.7899
-40.9018
-41.4114
-43.8844
-40.652
-40.6472
-40.6377
-40.6235
-40.6045
-40.5812
-40.554
-40.5241
-40.4942
-40.4693
-40.4596
-40.4841
-40.5654
-40.5952
-39.2245
-40.3562
-40.3507
-40.3397
-40.3232
-40.3013
-40.2739
-40.2417
-40.2059
-40.1689
-40.136
-40.118
-40.1389
-40.2648
-40.751
-43.1462
-40.0639
-40.0578
-40.0454
-40.0267
-40.0015
-39.9699
-39.932
-39.8884
-39.8408
-39.7922
-39.7486
-39.7208
-39.7138
-39.581
-37.8184
-39.7758
-39.769
-39.7552
-39.7343
-39.706
-39.6701
-39.6261
-39.574
-39.5134
-39.4445
-39.3674
-39.2881
-39.2503
-39.5423
-42.1847
-39.4922
-39.4848
-39.4698
-39.4469
-39.4157
-39.3757
-39.3259
-39.2653
-39.192
-39.1021
-38.987
-38.8264
-38.5577
-37.8709
-34.7887
-39.2135
-39.2056
-39.1895
-39.165
-39.1314
-39.0878
-39.0332
-38.9657
-38.8822
-38.7768
-38.6372
-38.4399
-38.1554
-37.8625
-38.8553
-38.9401
-38.9318
-38.915
-38.8892
-38.8537
-38.8075
-38.7493
-38.6771
-38.5876
-38.475
-38.3265
-38.1139
-37.7589
-36.9609
-34.2321
-38.6723
-38.6637
-38.6464
-38.6198
-38.5831
-38.5354
-38.4752
-38.4006
-38.3093
-38.1976
-38.0595
-37.8866
-37.6699
-37.3997
-37.0994
-38.4101
-38.4015
-38.384
-38.3571
-38.3201
-38.2718
-38.2109
-38.1359
-38.0453
-37.9382
-37.8157
-37.6897
-37.618
-37.8589
-39.7613
-38.1537
-38.1452
-38.1279
-38.1013
-38.0646
-38.0167
-37.9563
-37.8821
-37.7929
-37.689
-37.5732
-37.4552
-37.3491
-37.1636
-35.7994
-37.9029
-37.8947
-37.878
-37.8522
-37.8166
-37.7701
-37.7113
-37.6387
-37.551
-37.4476
-37.331
-37.2124
-37.1354
-37.2864
-38.8419
-37.6577
-37.6499
-37.634
-37.6096
-37.576
-37.5319
-37.4759
-37.406
-37.3199
-37.2151
-37.0892
-36.9408
-36.7632
-36.4333
-34.8435
-37.4175
-37.4103
-37.3957
-37.3732
-37.3423
-37.3017
-37.25
-37.1846
-37.102
-36.9969
-36.8617
-36.6895
-36.4967
-36.4545
-37.8691
-37.1821
-37.1756
-37.1625
-37.1425
-37.115
-37.0792
-37.0335
-36.9752
-36.8998
-36.7992
-36.6587
-36.4526
-36.1256
-35.4636
-33.2199
-36.951
-36.9453
-36.9339
-36.9166
-36.8933
-36.8633
-36.8257
-36.7779
-36.7153
-36.6287
-36.5002
-36.2996
-35.9871
-35.5704
-35.677
-36.7235
-36.7186
-36.709
-36.6946
-36.6758
-36.6526
-36.6248
-36.5909
-36.5477
-36.4868
-36.3906
-36.2241
-35.9211
-35.3131
-33.7435
-36.4992
-36.495
-36.487
-36.4755
-36.4612
-36.445
-36.428
-36.4106
-36.3924
-36.369
-36.3284
-36.2436
-36.0667
-35.723
-35.1922
-36.2774
-36.2739
-36.2671
-36.2579
-36.2475
-36.2378
-36.2313
-36.2311
-36.2407
-36.2629
-36.2957
-36.327
-36.3283
-36.2623
-36.276
-36.0579
-36.0546
-36.0486
-36.0409
-36.0332
-36.0282
-36.0301
-36.0447
-36.0805
-36.1488
-36.2627
-36.4312
-36.6365
-36.7457
-36.3284
-35.8403
-35.837
-35.831
-35.8235
-35.8166
-35.8137
-35.8201
-35.8438
-35.8979
-36.0027
-36.1906
-36.5097
-37.0115
-37.5941
-37.1396
-35.6247
-35.621
-35.6141
-35.6054
-35.597
-35.5926
-35.5978
-35.6219
-35.68
-35.7985
-36.0259
-36.4615
-37.3305
-39.162
-43.17
-35.4114
-35.4068
-35.3982
-35.3867
-35.3744
-35.3645
-35.3625
-35.3765
-35.4204
-35.5182
-35.7153
-36.1122
-36.9812
-39.2179
-46.4568
-48.1826
-40.7013
-38.3557
-37.4301
-36.9977
-36.7757
-36.6587
-36.5995
-36.5733
-36.5655
-36.5675
-36.5738
-36.581
-36.5868
-36.59
-45.1795
-40.6666
-38.6872
-37.7549
-37.2827
-37.0304
-36.8931
-36.8202
-36.7844
-36.7698
-36.7669
-36.7696
-36.7743
-36.7786
-36.781
-38.1243
-38.8719
-38.2917
-37.7603
-37.4139
-37.2046
-37.0828
-37.0152
-36.9807
-36.9658
-36.962
-36.9638
-36.9677
-36.9713
-36.9734
-37.7437
-37.9987
-37.8624
-37.637
-37.4487
-37.3175
-37.2348
-37.1873
-37.1633
-37.1539
-37.153
-37.1563
-37.1608
-37.1648
-37.167
-37.1898
-37.3966
-37.4953
-37.4878
-37.4426
-37.3963
-37.3625
-37.3432
-37.3356
-37.336
-37.3409
-37.3476
-37.3541
-37.3592
-37.3619
-36.3154
-36.869
-37.202
-37.3647
-37.4362
-37.4659
-37.4801
-37.491
-37.5024
-37.5147
-37.5271
-37.5386
-37.5481
-37.5549
-37.5584
-35.241
-36.4939
-37.0272
-37.3046
-37.4578
-37.5456
-37.6002
-37.6385
-37.6684
-37.6931
-37.7139
-37.7308
-37.7438
-37.7526
-37.757
-36.5544
-36.618
-37.0304
-37.3306
-37.5237
-37.6479
-37.7317
-37.792
-37.838
-37.8742
-37.9029
-37.9254
-37.942
-37.953
-37.9585
-34.5733
-36.4991
-37.1117
-37.4308
-37.6364
-37.7778
-37.8795
-37.9555
-38.0142