/*--------------------------------*- C++ -*----------------------------------*\
| =========                 |                                                 |
| \\      /  F ield         | OpenFOAM: The Open Source CFD Toolbox           |
|  \\    /   O peration     | Version:  5.x                                   |
|   \\  /    A nd           | Web:      www.OpenFOAM.org                      |
|    \\/     M anipulation  |                                                 |
\*---------------------------------------------------------------------------*/
FoamFile
{
    version     2.0;
    format      ascii;
    class       volScalarField;
    location    "4.8";
    object      T;
}
// * * * * * * * * * * * * * * * * * * * * * * * * * * * * * * * * * * * * * //

dimensions      [0 0 0 1 0 0 0];

internalField   nonuniform List<scalar> 
6300
(
322.741
322.222
321.704
321.186
320.669
320.153
319.637
319.123
318.611
318.099
317.59
317.083
316.577
316.074
315.573
322.741
322.222
321.703
321.185
320.668
320.152
319.636
319.122
318.609
318.098
317.588
317.081
316.575
316.072
315.57
322.74
322.221
321.703
321.184
320.666
320.15
319.634
319.119
318.606
318.094
317.584
317.076
316.57
316.067
315.566
322.74
322.221
321.701
321.182
320.664
320.146
319.63
319.115
318.601
318.089
317.578
317.07
316.564
316.06
315.558
322.74
322.219
321.699
321.18
320.661
320.142
319.625
319.109
318.594
318.081
317.57
317.061
316.555
316.05
315.548
322.739
322.218
321.697
321.176
320.656
320.137
319.619
319.102
318.586
318.072
317.56
317.051
316.543
316.038
315.536
322.739
322.216
321.694
321.172
320.651
320.131
319.611
319.093
318.576
318.061
317.548
317.037
316.529
316.024
315.521
322.738
322.215
321.691
321.168
320.646
320.124
319.603
319.083
318.565
318.048
317.533
317.021
316.512
316.006
315.503
322.737
322.212
321.688
321.163
320.639
320.116
319.593
319.071
318.551
318.033
317.516
317.003
316.492
315.985
315.482
322.737
322.21
321.684
321.158
320.632
320.107
319.582
319.058
318.536
318.015
317.496
316.981
316.468
315.961
315.458
322.736
322.208
321.68
321.152
320.624
320.097
319.57
319.044
318.519
317.995
317.474
316.955
316.44
315.931
315.428
322.735
322.205
321.676
321.146
320.616
320.087
319.558
319.029
318.501
317.974
317.448
316.925
316.407
315.895
315.392
322.734
322.203
321.671
321.14
320.608
320.076
319.544
319.013
318.481
317.95
317.42
316.891
316.367
315.849
315.344
322.733
322.2
321.667
321.133
320.6
320.066
319.531
318.997
318.461
317.926
317.389
316.853
316.319
315.791
315.278
322.733
322.198
321.663
321.128
320.592
320.056
319.519
318.981
318.442
317.901
317.359
316.814
316.266
315.716
315.176
315.116
314.702
314.29
313.88
313.472
313.066
312.662
312.26
311.861
311.464
311.07
310.68
310.292
309.908
309.527
309.15
308.777
308.408
308.043
307.681
307.324
306.971
306.621
306.276
305.934
305.597
305.263
304.932
304.605
304.282
303.961
303.644
303.33
303.018
302.709
302.403
302.1
301.799
301.501
301.205
300.912
300.621
300.333
300.047
299.763
299.482
299.203
298.927
298.653
298.381
298.111
297.844
297.579
297.315
297.054
296.794
296.536
296.28
296.025
295.771
295.519
295.267
295.017
294.767
294.518
294.27
294.022
293.774
293.527
293.279
293.032
292.785
292.537
292.289
292.041
291.792
291.542
291.292
291.041
290.788
290.535
290.281
290.025
289.767
289.509
289.248
288.986
288.723
288.458
288.19
315.113
314.699
314.287
313.877
313.469
313.062
312.658
312.256
311.857
311.46
311.066
310.675
310.287
309.903
309.522
309.145
308.771
308.402
308.037
307.675
307.318
306.965
306.615
306.27
305.929
305.591
305.257
304.927
304.6
304.277
303.957
303.639
303.325
303.014
302.705
302.399
302.096
301.796
301.497
301.202
300.908
300.618
300.329
300.043
299.76
299.478
299.2
298.923
298.649
298.377
298.108
297.841
297.576
297.312
297.051
296.792
296.534
296.278
296.023
295.77
295.517
295.266
295.016
294.766
294.517
294.269
294.021
293.774
293.526
293.279
293.032
292.785
292.537
292.29
292.041
291.793
291.543
291.293
291.042
290.79
290.537
290.282
290.027
289.77
289.511
289.251
288.989
288.725
288.46
288.193
315.108
314.694
314.282
313.871
313.463
313.056
312.651
312.249
311.849
311.452
311.057
310.665
310.277
309.892
309.511
309.134
308.76
308.39
308.025
307.663
307.306
306.953
306.604
306.259
305.918
305.58
305.247
304.917
304.59
304.267
303.947
303.631
303.317
303.006
302.697
302.392
302.089
301.788
301.49
301.194
300.901
300.61
300.322
300.036
299.752
299.471
299.192
298.916
298.642
298.371
298.101
297.834
297.569
297.307
297.046
296.787
296.529
296.273
296.019
295.766
295.514
295.263
295.013
294.764
294.515
294.267
294.02
293.773
293.526
293.279
293.032
292.785
292.538
292.291
292.043
291.794
291.545
291.296
291.045
290.793
290.54
290.286
290.031
289.774
289.515
289.255
288.994
288.73
288.465
288.198
315.101
314.686
314.274
313.863
313.454
313.047
312.641
312.238
311.837
311.439
311.044
310.651
310.262
309.877
309.495
309.117
308.743
308.373
308.007
307.645
307.288
306.935
306.586
306.241
305.901
305.564
305.231
304.901
304.576
304.253
303.934
303.617
303.304
302.993
302.685
302.38
302.077
301.777
301.479
301.183
300.89
300.599
300.311
300.025
299.741
299.46
299.182
298.905
298.632
298.36
298.091
297.825
297.56
297.298
297.038
296.779
296.522
296.267
296.013
295.76
295.509
295.259
295.009
294.76
294.512
294.265
294.018
293.771
293.525
293.278
293.032
292.786
292.539
292.292
292.045
291.797
291.548
291.299
291.049
290.797
290.545
290.291
290.036
289.78
289.522
289.262
289.001
288.738
288.472
288.205
315.091
314.676
314.263
313.852
313.442
313.034
312.628
312.224
311.822
311.422
311.026
310.632
310.242
309.855
309.473
309.094
308.719
308.349
307.983
307.621
307.264
306.911
306.562
306.218
305.878
305.542
305.209
304.881
304.556
304.234
303.915
303.6
303.287
302.977
302.669
302.364
302.062
301.762
301.464
301.169
300.876
300.585
300.297
300.011
299.727
299.446
299.167
298.891
298.617
298.346
298.078
297.812
297.548
297.286
297.026
296.769
296.513
296.258
296.005
295.753
295.502
295.253
295.004
294.756
294.508
294.262
294.015
293.769
293.524
293.278
293.032
292.786
292.541
292.294
292.048
291.8
291.552
291.304
291.054
290.804
290.552
290.299
290.044
289.788
289.531
289.272
289.011
288.748
288.483
288.216
315.078
314.663
314.25
313.838
313.428
313.019
312.612
312.206
311.803
311.402
311.003
310.608
310.216
309.829
309.445
309.065
308.69
308.319
307.952
307.59
307.233
306.881
306.532
306.189
305.849
305.514
305.183
304.855
304.531
304.21
303.892
303.578
303.266
302.956
302.649
302.345
302.043
301.743
301.446
301.15
300.857
300.567
300.278
299.992
299.709
299.427
299.149
298.873
298.599
298.329
298.061
297.795
297.532
297.271
297.012
296.756
296.501
296.247
295.995
295.744
295.494
295.245
294.997
294.75
294.504
294.258
294.012
293.767
293.522
293.277
293.032
292.787
292.542
292.297
292.051
291.805
291.558
291.31
291.061
290.811
290.56
290.308
290.054
289.799
289.542
289.283
289.023
288.76
288.496
288.229
315.063
314.648
314.235
313.823
313.412
313.002
312.593
312.186
311.78
311.377
310.976
310.579
310.185
309.796
309.411
309.03
308.654
308.282
307.915
307.553
307.196
306.843
306.496
306.153
305.815
305.48
305.15
304.824
304.501
304.182
303.865
303.552
303.241
302.932
302.626
302.322
302.02
301.721
301.424
301.129
300.836
300.545
300.257
299.971
299.687
299.405
299.126
298.85
298.577
298.307
298.04
297.775
297.513
297.253
296.996
296.74
296.486
296.234
295.983
295.733
295.485
295.237
294.99
294.743
294.498
294.253
294.008
293.764
293.52
293.276
293.032
292.788
292.544
292.3
292.055
291.81
291.564
291.317
291.069
290.82
290.57
290.319
290.066
289.812
289.556
289.298
289.038
288.776
288.512
288.245
315.045
314.631
314.217
313.805
313.394
312.983
312.572
312.163
311.754
311.348
310.944
310.544
310.148
309.757
309.37
308.988
308.611
308.238
307.871
307.508
307.151
306.799
306.452
306.111
305.774
305.441
305.112
304.788
304.466
304.149
303.834
303.522
303.212
302.904
302.599
302.296
301.994
301.695
301.398
301.104
300.811
300.521
300.232
299.945
299.661
299.379
299.1
298.824
298.551
298.281
298.015
297.751
297.49
297.232
296.976
296.722
296.469
296.219
295.969
295.721
295.473
295.227
294.981
294.735
294.491
294.247
294.004
293.761
293.518
293.275
293.033
292.79
292.546
292.303
292.06
291.816
291.571
291.326
291.079
290.831
290.582
290.332
290.08
289.827
289.572
289.315
289.056
288.795
288.532
288.265
315.025
314.611
314.198
313.787
313.375
312.963
312.551
312.138
311.725
311.315
310.907
310.503
310.104
309.711
309.323
308.939
308.561
308.188
307.819
307.456
307.099
306.747
306.402
306.061
305.726
305.396
305.069
304.746
304.427
304.111
303.798
303.488
303.18
302.874
302.569
302.266
301.965
301.666
301.37
301.076
300.783
300.493
300.204
299.917
299.631
299.348
299.068
298.792
298.519
298.25
297.985
297.723
297.464
297.207
296.953
296.7
296.45
296.201
295.954
295.707
295.461
295.216
294.971
294.726
294.483
294.24
293.998
293.757
293.516
293.274
293.033
292.791
292.549
292.307
292.065
291.822
291.58
291.336
291.09
290.844
290.596
290.346
290.096
289.844
289.591
289.336
289.078
288.818
288.555
288.289
315.001
314.589
314.178
313.768
313.357
312.944
312.529
312.112
311.694
311.277
310.864
310.455
310.053
309.657
309.268
308.884
308.504
308.13
307.76
307.395
307.038
306.687
306.343
306.005
305.672
305.344
305.02
304.699
304.382
304.069
303.759
303.451
303.145
302.84
302.536
302.233
301.932
301.634
301.338
301.045
300.753
300.463
300.174
299.885
299.598
299.313
299.032
298.755
298.482
298.215
297.951
297.691
297.434
297.179
296.926
296.676
296.428
296.182
295.937
295.692
295.448
295.204
294.959
294.716
294.473
294.232
293.992
293.753
293.514
293.274
293.033
292.792
292.551
292.31
292.07
291.83
291.589
291.347
291.104
290.858
290.611
290.363
290.114
289.863
289.612
289.359
289.104
288.845
288.583
288.317
314.974
314.564
314.157
313.751
313.342
312.929
312.51
312.087
311.661
311.235
310.813
310.398
309.992
309.595
309.205
308.821
308.441
308.064
307.692
307.325
306.967
306.617
306.275
305.941
305.612
305.287
304.965
304.647
304.332
304.022
303.716
303.412
303.109
302.806
302.502
302.198
301.896
301.597
301.302
301.011
300.721
300.432
300.142
299.851
299.562
299.273
298.989
298.711
298.438
298.172
297.912
297.655
297.4
297.147
296.897
296.649
296.403
296.161
295.919
295.677
295.435
295.191
294.947
294.704
294.462
294.223
293.985
293.749
293.512
293.274
293.034
292.794
292.553
292.313
292.075
291.838
291.601
291.362
291.12
290.875
290.629
290.381
290.132
289.884
289.636
289.386
289.133
288.877
288.616
288.351
314.941
314.537
314.136
313.736
313.333
312.921
312.498
312.065
311.627
311.187
310.753
310.329
309.918
309.52
309.134
308.753
308.373
307.993
307.615
307.244
306.883
306.534
306.196
305.869
305.547
305.226
304.906
304.588
304.275
303.969
303.669
303.372
303.073
302.771
302.466
302.16
301.855
301.555
301.261
300.973
300.688
300.401
300.111
299.817
299.522
299.228
298.939
298.657
298.386
298.122
297.867
297.615
297.364
297.113
296.863
296.617
296.375
296.138
295.902
295.664
295.423
295.179
294.934
294.688
294.447
294.21
293.977
293.746
293.512
293.276
293.036
292.795
292.553
292.314
292.079
291.846
291.615
291.379
291.14
290.896
290.648
290.399
290.151
289.905
289.662
289.417
289.169
288.915
288.655
288.391
314.899
314.505
314.112
313.727
313.337
312.927
312.5
312.052
311.596
311.13
310.678
310.24
309.826
309.43
309.054
308.684
308.303
307.919
307.528
307.149
306.782
306.435
306.103
305.789
305.479
305.162
304.843
304.521
304.209
303.907
303.619
303.334
303.041
302.742
302.432
302.121
301.806
301.504
301.211
300.933
300.658
300.374
300.085
299.784
299.481
299.174
298.877
298.59
298.32
298.061
297.816
297.574
297.326
297.077
296.823
296.578
296.34
296.113
295.887
295.654
295.415
295.169
294.92
294.668
294.426
294.191
293.967
293.745
293.517
293.283
293.041
292.796
292.549
292.31
292.077
291.854
291.633
291.403
291.167
290.92
290.67
290.415
290.166
289.923
289.689
289.455
289.211
288.961
288.701
288.439
314.842
314.47
314.076
313.727
313.372
312.956
312.533
312.052
311.578
311.053
310.584
310.116
309.708
309.309
308.968
308.629
308.24
307.853
307.423
307.037
306.651
306.313
305.984
305.701
305.422
305.102
304.786
304.438
304.129
303.825
303.565
303.309
303.017
302.727
302.401
302.085
301.741
301.437
301.141
300.888
300.639
300.356
300.073
299.756
299.445
299.105
298.802
298.5
298.237
297.98
297.76
297.542
297.292
297.045
296.772
296.53
296.29
296.085
295.883
295.651
295.42
295.161
294.909
294.635
294.393
294.156
293.953
293.754
293.528
293.302
293.049
292.802
292.533
292.295
292.062
291.861
291.663
291.436
291.208
290.951
290.698
290.421
290.173
289.928
289.716
289.505
289.263
289.02
288.751
288.499
314.748
314.469
313.974
313.735
313.493
312.994
312.65
312.042
311.632
310.895
310.491
309.904
309.576
309.106
308.877
308.647
308.175
307.848
307.254
306.926
306.449
306.181
305.797
305.609
305.422
305.038
304.774
304.3
304.042
303.679
303.504
303.334
302.993
302.761
302.357
302.089
301.616
301.362
301.006
300.836
300.671
300.339
300.112
299.717
299.452
298.982
298.724
298.353
298.145
297.847
297.701
297.554
297.255
297.049
296.678
296.476
296.191
296.054
295.919
295.649
295.465
295.143
294.93
294.555
294.353
294.071
293.935
293.803
293.539
293.36
293.047
292.839
292.473
292.275
291.998
291.864
291.733
291.471
291.291
290.975
290.763
290.384
290.177
289.884
289.742
289.601
289.315
289.119
288.775
288.582
287.895
287.569
287.242
286.912
286.58
286.245
285.909
285.571
285.231
284.89
284.548
284.205
283.861
283.517
283.172
287.897
287.572
287.244
286.914
286.582
286.247
285.911
285.572
285.232
284.891
284.549
284.206
283.862
283.517
283.172
287.902
287.577
287.249
286.918
286.586
286.251
285.914
285.575
285.235
284.894
284.551
284.207
283.863
283.518
283.173
287.91
287.584
287.256
286.925
286.592
286.257
285.919
285.58
285.239
284.897
284.554
284.209
283.864
283.519
283.173
287.92
287.594
287.266
286.934
286.6
286.264
285.926
285.586
285.244
284.901
284.557
284.212
283.866
283.52
283.173
287.933
287.607
287.278
286.946
286.611
286.274
285.935
285.594
285.251
284.907
284.562
284.216
283.869
283.521
283.174
287.949
287.623
287.293
286.96
286.624
286.286
285.945
285.603
285.259
284.914
284.567
284.22
283.872
283.523
283.174
287.969
287.642
287.311
286.977
286.64
286.3
285.958
285.614
285.268
284.922
284.574
284.225
283.875
283.525
283.175
287.993
287.665
287.333
286.997
286.658
286.316
285.972
285.626
285.279
284.93
284.581
284.23
283.879
283.528
283.176
288.021
287.692
287.358
287.02
286.679
286.335
285.989
285.64
285.291
284.94
284.589
284.236
283.883
283.53
283.177
288.054
287.724
287.388
287.047
286.703
286.355
286.006
285.656
285.304
284.951
284.597
284.243
283.888
283.533
283.178
288.094
287.761
287.422
287.077
286.729
286.378
286.026
285.672
285.318
284.962
284.606
284.25
283.893
283.536
283.179
288.143
287.806
287.461
287.11
286.757
286.403
286.047
285.69
285.333
284.975
284.616
284.257
283.898
283.539
283.18
288.204
287.859
287.505
287.147
286.788
286.428
286.068
285.708
285.348
284.987
284.626
284.265
283.904
283.542
283.181
288.288
287.922
287.552
287.184
286.818
286.454
286.09
285.727
285.363
285
284.637
284.273
283.909
283.546
283.182
322.732
322.196
321.659
321.122
320.585
320.047
319.508
318.968
318.425
317.881
317.333
316.78
316.219
315.64
315.015
322.731
322.194
321.656
321.118
320.58
320.04
319.499
318.957
318.412
317.865
317.313
316.756
316.188
315.602
314.978
322.731
322.192
321.654
321.114
320.575
320.034
319.491
318.947
318.401
317.851
317.297
316.738
316.17
315.591
315.003
322.73
322.191
321.651
321.111
320.57
320.028
319.485
318.939
318.391
317.84
317.286
316.726
316.16
315.587
315.01
322.73
322.19
321.65
321.109
320.567
320.024
319.479
318.933
318.384
317.832
317.277
316.718
316.154
315.586
315.017
322.73
322.189
321.648
321.106
320.564
320.02
319.475
318.928
318.379
317.827
317.272
316.713
316.151
315.586
315.019
322.729
322.188
321.647
321.105
320.562
320.018
319.472
318.925
318.376
317.824
317.269
316.711
316.15
315.587
315.021
322.729
322.188
321.646
321.104
320.561
320.016
319.471
318.923
318.374
317.822
317.268
316.711
316.151
315.589
315.024
322.729
322.188
321.646
321.103
320.56
320.016
319.47
318.923
318.374
317.822
317.269
316.713
316.154
315.593
315.028
322.729
322.188
321.646
321.104
320.56
320.016
319.471
318.924
318.375
317.824
317.272
316.717
316.159
315.6
315.038
322.729
322.188
321.647
321.104
320.561
320.018
319.472
318.926
318.378
317.828
317.276
316.722
316.165
315.607
315.045
322.73
322.189
321.647
321.106
320.563
320.02
319.475
318.929
318.382
317.832
317.281
316.728
316.173
315.617
315.059
322.73
322.189
321.649
321.107
320.565
320.023
319.479
318.933
318.387
317.838
317.288
316.736
316.182
315.627
315.068
322.73
322.19
321.65
321.11
320.568
320.026
319.483
318.939
318.393
317.846
317.296
316.746
316.193
315.638
315.085
322.731
322.191
321.652
321.112
320.572
320.031
319.488
318.945
318.4
317.854
317.306
316.756
316.204
315.65
315.093
322.731
322.193
321.654
321.115
320.576
320.036
319.494
318.952
318.408
317.863
317.317
316.768
316.217
315.663
315.103
322.731
322.194
321.657
321.119
320.581
320.041
319.501
318.96
318.418
317.874
317.329
316.781
316.232
315.68
315.127
322.732
322.196
321.66
321.123
320.586
320.048
319.509
318.969
318.428
317.886
317.342
316.796
316.249
315.699
315.144
322.733
322.198
321.663
321.127
320.591
320.055
319.517
318.979
318.439
317.898
317.356
316.812
316.268
315.722
315.178
322.733
322.2
321.666
321.132
320.597
320.062
319.526
318.989
318.451
317.912
317.371
316.83
316.287
315.743
315.198
322.734
322.202
321.67
321.137
320.604
320.07
319.536
319
318.464
317.926
317.387
316.847
316.306
315.765
315.228
322.735
322.204
321.673
321.142
320.611
320.079
319.546
319.012
318.477
317.941
317.404
316.866
316.326
315.785
315.242
322.736
322.207
321.677
321.148
320.618
320.088
319.556
319.024
318.492
317.957
317.422
316.885
316.347
315.805
315.257
322.736
322.209
321.682
321.154
320.626
320.097
319.568
319.038
318.507
317.974
317.441
316.906
316.369
315.83
315.289
322.737
322.212
321.686
321.16
320.634
320.107
319.58
319.051
318.522
317.992
317.461
316.928
316.394
315.856
315.312
322.738
322.215
321.691
321.167
320.642
320.117
319.592
319.066
318.539
318.011
317.482
316.952
316.42
315.886
315.353
322.739
322.217
321.696
321.174
320.651
320.128
319.605
319.081
318.556
318.03
317.504
316.976
316.447
315.917
315.381
322.74
322.22
321.701
321.181
320.66
320.139
319.618
319.096
318.573
318.05
317.526
317.001
316.476
315.952
315.432
322.741
322.224
321.706
321.188
320.67
320.151
319.632
319.112
318.591
318.07
317.549
317.027
316.504
315.983
315.461
322.742
322.227
321.711
321.195
320.679
320.163
319.646
319.128
318.61
318.091
317.572
317.052
316.532
316.014
315.502
322.743
322.23
321.717
321.203
320.689
320.175
319.66
319.145
318.629
318.113
317.595
317.078
316.559
316.04
315.521
322.744
322.233
321.722
321.211
320.699
320.187
319.675
319.162
318.648
318.134
317.619
317.104
316.587
316.067
315.54
322.746
322.237
321.728
321.219
320.709
320.2
319.69
319.179
318.668
318.156
317.644
317.13
316.615
316.099
315.581
322.747
322.24
321.734
321.227
320.72
320.213
319.705
319.197
318.688
318.179
317.669
317.158
316.646
316.13
315.608
322.748
322.244
321.74
321.235
320.731
320.226
319.721
319.215
318.709
318.202
317.695
317.187
316.678
316.167
315.657
322.749
322.248
321.746
321.244
320.742
320.239
319.737
319.234
318.73
318.226
317.722
317.217
316.711
316.204
315.69
322.75
322.251
321.752
321.253
320.753
320.253
319.753
319.252
318.751
318.25
317.748
317.247
316.745
316.244
315.75
322.752
322.255
321.758
321.261
320.764
320.267
319.769
319.271
318.773
318.274
317.775
317.276
316.778
316.28
315.783
322.753
322.259
321.765
321.27
320.776
320.281
319.786
319.291
318.795
318.299
317.802
317.306
316.81
316.316
315.83
322.754
322.263
321.771
321.279
320.787
320.295
319.803
319.31
318.817
318.324
317.83
317.335
316.841
316.346
315.852
322.756
322.267
321.778
321.289
320.799
320.31
319.82
319.33
318.839
318.348
317.857
317.365
316.872
316.376
315.873
322.757
322.271
321.784
321.298
320.811
320.324
319.837
319.35
318.862
318.374
317.885
317.395
316.904
316.411
315.918
322.758
322.275
321.791
321.307
320.823
320.339
319.855
319.37
318.885
318.399
317.913
317.426
316.938
316.447
315.948
322.76
322.279
321.798
321.317
320.836
320.354
319.872
319.391
318.908
318.426
317.942
317.458
316.974
316.488
316.003
322.761
322.283
321.805
321.326
320.848
320.369
319.89
319.411
318.932
318.452
317.972
317.491
317.01
316.528
316.039
322.762
322.287
321.812
321.336
320.86
320.385
319.908
319.432
318.956
318.479
318.002
317.524
317.047
316.572
316.104
322.764
322.291
321.819
321.346
320.873
320.4
319.927
319.453
318.98
318.506
318.031
317.557
317.084
316.611
316.14
322.765
322.295
321.826
321.356
320.886
320.416
319.945
319.475
319.004
318.533
318.061
317.59
317.119
316.651
316.191
322.767
322.3
321.833
321.366
320.899
320.431
319.964
319.496
319.028
318.56
318.091
317.622
317.153
316.684
316.215
322.768
322.304
321.84
321.376
320.912
320.447
319.983
319.518
319.053
318.587
318.121
317.654
317.187
316.716
316.238
322.769
322.308
321.847
321.386
320.925
320.463
320.002
319.54
319.077
318.615
318.151
317.687
317.222
316.755
316.287
322.771
322.313
321.855
321.396
320.938
320.479
320.021
319.562
319.102
318.643
318.183
317.721
317.259
316.794
316.32
322.772
322.317
321.862
321.407
320.951
320.496
320.04
319.584
319.128
318.671
318.214
317.756
317.298
316.838
316.379
322.774
322.322
321.869
321.417
320.965
320.512
320.059
319.607
319.153
318.7
318.246
317.792
317.338
316.881
316.418
322.775
322.326
321.877
321.428
320.978
320.529
320.079
319.629
319.179
318.729
318.279
317.828
317.378
316.93
316.49
322.777
322.331
321.884
321.438
320.992
320.545
320.099
319.652
319.205
318.758
318.311
317.864
317.418
316.973
316.529
322.778
322.335
321.892
321.449
321.006
320.562
320.119
319.675
319.231
318.787
318.343
317.899
317.456
317.015
316.584
322.78
322.34
321.9
321.46
321.019
320.579
320.139
319.698
319.257
318.816
318.375
317.934
317.493
317.051
316.61
322.781
322.344
321.907
321.47
321.033
320.596
320.159
319.721
319.283
318.846
318.408
317.969
317.529
317.087
316.636
322.783
322.349
321.915
321.481
321.047
320.613
320.179
319.744
319.31
318.875
318.44
318.004
317.567
317.128
316.689
322.785
322.354
321.923
321.492
321.061
320.63
320.199
319.768
319.337
318.905
318.473
318.041
317.607
317.17
316.725
322.786
322.358
321.93
321.503
321.075
320.647
320.219
319.791
319.363
318.935
318.507
318.078
317.649
317.218
316.789
322.788
322.363
321.938
321.513
321.089
320.664
320.239
319.815
319.39
318.965
318.541
318.116
317.691
317.265
316.832
322.789
322.367
321.946
321.524
321.103
320.681
320.26
319.838
319.417
318.996
318.575
318.154
317.734
317.317
316.909
322.791
322.372
321.953
321.535
321.117
320.698
320.28
319.862
319.444
319.026
318.608
318.192
317.776
317.363
316.95
322.792
322.377
321.961
321.546
321.13
320.715
320.3
319.885
319.47
319.056
318.642
318.228
317.816
317.407
317.009
322.794
322.381
321.969
321.556
321.144
320.732
320.32
319.908
319.497
319.086
318.675
318.264
317.854
317.445
317.037
322.795
322.386
321.976
321.567
321.158
320.749
320.34
319.931
319.523
319.115
318.707
318.3
317.891
317.482
317.063
322.797
322.39
321.984
321.577
321.171
320.765
320.36
319.954
319.549
319.144
318.74
318.335
317.93
317.524
317.118
322.798
322.395
321.991
321.588
321.185
320.782
320.379
319.977
319.575
319.174
318.772
318.371
317.97
317.566
317.155
322.8
322.399
321.999
321.598
321.198
320.798
320.399
319.999
319.601
319.203
318.805
318.408
318.011
317.613
317.219
322.801
322.403
322.006
321.608
321.211
320.814
320.418
320.022
319.626
319.231
318.837
318.444
318.052
317.659
317.261
322.803
322.408
322.013
321.618
321.224
320.83
320.436
320.043
319.651
319.26
318.869
318.48
318.093
317.709
317.335
322.804
322.412
322.02
321.628
321.237
320.845
320.455
320.065
319.675
319.287
318.9
318.514
318.131
317.751
317.374
322.805
322.416
322.027
321.638
321.249
320.861
320.473
320.086
319.699
319.314
318.93
318.547
318.167
317.792
317.428
322.807
322.42
322.033
321.647
321.261
320.875
320.49
320.106
319.722
319.34
318.958
318.578
318.201
317.825
317.453
322.808
322.424
322.04
321.656
321.273
320.89
320.507
320.126
319.745
319.365
318.986
318.608
318.232
317.856
317.475
322.809
322.428
322.046
321.665
321.284
320.904
320.524
320.145
319.766
319.389
319.013
318.637
318.263
317.89
317.52
322.81
322.431
322.053
321.674
321.296
320.918
320.54
320.163
319.787
319.412
319.038
318.666
318.294
317.923
317.548
322.812
322.435
322.059
321.682
321.307
320.931
320.556
320.181
319.808
319.435
319.063
318.693
318.325
317.958
317.596
322.813
322.439
322.065
321.691
321.317
320.944
320.571
320.199
319.828
319.457
319.088
318.72
318.354
317.99
317.625
322.814
322.442
322.071
321.699
321.328
320.957
320.586
320.216
319.847
319.478
319.111
318.745
318.382
318.022
317.672
322.815
322.446
322.076
321.707
321.338
320.969
320.601
320.233
319.865
319.498
319.133
318.768
318.407
318.049
317.695
322.816
322.449
322.082
321.715
321.348
320.981
320.615
320.249
319.883
319.518
319.154
318.79
318.429
318.072
317.723
322.817
322.453
322.088
321.723
321.358
320.994
320.629
320.265
319.901
319.537
319.174
318.811
318.449
318.089
317.734
322.819
322.456
322.093
321.731
321.368
321.006
320.643
320.281
319.919
319.556
319.193
318.83
318.467
318.104
317.742
322.82
322.459
322.099
321.738
321.378
321.018
320.657
320.297
319.936
319.575
319.213
318.85
318.485
318.117
317.75
322.821
322.462
322.104
321.746
321.388
321.029
320.671
320.313
319.954
319.595
319.234
318.871
318.504
318.131
317.752
322.822
322.466
322.109
321.753
321.397
321.041
320.685
320.329
319.973
319.616
319.257
318.895
318.528
318.149
317.745
322.823
322.469
322.115
321.761
321.407
321.053
320.7
320.346
319.992
319.638
319.282
318.923
318.56
318.184
317.775
288.408
287.984
287.594
287.216
286.845
286.476
286.109
285.743
285.377
285.012
284.646
284.28
283.915
283.549
283.183
288.436
288.015
287.622
287.242
286.867
286.496
286.127
285.758
285.39
285.023
284.655
284.287
283.919
283.552
283.184
288.42
288.029
287.642
287.263
286.887
286.514
286.143
285.773
285.403
285.033
284.664
284.294
283.924
283.555
283.185
288.418
288.038
287.658
287.281
286.905
286.532
286.159
285.787
285.415
285.044
284.672
284.301
283.929
283.558
283.186
288.42
288.047
287.672
287.297
286.922
286.548
286.175
285.801
285.428
285.054
284.681
284.308
283.934
283.56
283.187
288.424
288.057
287.686
287.313
286.939
286.565
286.19
285.815
285.44
285.065
284.69
284.314
283.939
283.563
283.188
288.432
288.071
287.702
287.33
286.956
286.581
286.205
285.829
285.452
285.076
284.698
284.321
283.944
283.566
283.189
288.453
288.089
287.72
287.348
286.974
286.598
286.221
285.843
285.465
285.086
284.707
284.328
283.949
283.569
283.19
288.471
288.11
287.741
287.368
286.992
286.615
286.237
285.858
285.478
285.097
284.716
284.335
283.954
283.572
283.191
288.51
288.137
287.764
287.389
287.012
286.633
286.253
285.872
285.491
285.108
284.726
284.343
283.959
283.576
283.192
288.534
288.164
287.789
287.412
287.033
286.652
286.271
285.888
285.504
285.12
284.735
284.35
283.965
283.579
283.193
288.575
288.194
287.816
287.436
287.055
286.672
286.289
285.904
285.518
285.132
284.745
284.358
283.97
283.582
283.194
288.6
288.223
287.843
287.461
287.078
286.693
286.307
285.921
285.533
285.144
284.755
284.366
283.976
283.585
283.195
288.641
288.254
287.871
287.487
287.102
286.715
286.327
285.938
285.548
285.157
284.766
284.374
283.981
283.589
283.196
288.661
288.281
287.899
287.514
287.126
286.737
286.347
285.956
285.563
285.17
284.776
284.382
283.987
283.593
283.198
288.683
288.311
287.929
287.542
287.152
286.761
286.368
285.974
285.579
285.183
284.787
284.391
283.993
283.596
283.199
288.733
288.349
287.962
287.572
287.18
286.785
286.39
285.993
285.596
285.197
284.799
284.399
284
283.6
283.2
288.769
288.388
287.998
287.604
287.208
286.811
286.412
286.013
285.613
285.212
284.81
284.408
284.006
283.604
283.201
288.838
288.435
288.036
287.637
287.238
286.837
286.435
286.033
285.63
285.226
284.822
284.418
284.013
283.608
283.203
288.877
288.477
288.074
287.671
287.268
286.864
286.459
286.054
285.648
285.241
284.834
284.427
284.019
283.612
283.204
288.938
288.522
288.113
287.706
287.298
286.891
286.483
286.075
285.666
285.256
284.847
284.437
284.026
283.616
283.205
288.972
288.562
288.15
287.74
287.329
286.918
286.507
286.096
285.684
285.272
284.859
284.446
284.033
283.62
283.207
289.025
288.602
288.187
287.773
287.36
286.946
286.532
286.118
285.703
285.288
284.872
284.456
284.04
283.624
283.208
289.05
288.637
288.222
287.807
287.391
286.974
286.557
286.14
285.722
285.304
284.885
284.466
284.048
283.629
283.21
289.076
288.673
288.259
287.841
287.422
287.003
286.582
286.162
285.741
285.32
284.898
284.477
284.055
283.633
283.211
289.134
288.716
288.297
287.876
287.454
287.031
286.608
286.184
285.76
285.336
284.911
284.487
284.062
283.637
283.212
289.173
288.76
288.337
287.913
287.487
287.06
286.634
286.207
285.78
285.352
284.925
284.497
284.069
283.642
283.214
289.248
288.81
288.379
287.949
287.519
287.089
286.659
286.229
285.799
285.369
284.938
284.508
284.077
283.646
283.215
289.289
288.856
288.42
287.986
287.552
287.119
286.685
286.252
285.819
285.385
284.952
284.518
284.084
283.651
283.217
289.352
288.902
288.461
288.022
287.585
287.148
286.711
286.275
285.838
285.402
284.965
284.529
284.092
283.655
283.218
289.387
288.943
288.499
288.058
287.617
287.177
286.737
286.298
285.858
285.418
284.979
284.539
284.099
283.66
283.22
289.439
288.983
288.536
288.092
287.649
287.206
286.763
286.32
285.878
285.435
284.992
284.55
284.107
283.664
283.221
289.463
289.018
288.572
288.126
287.68
287.234
286.789
286.343
285.897
285.452
285.006
284.56
284.114
283.669
283.223
289.489
289.053
288.607
288.16
287.712
287.263
286.814
286.366
285.917
285.468
285.02
284.571
284.122
283.673
283.224
289.543
289.094
288.645
288.194
287.743
287.292
286.84
286.388
285.937
285.485
285.033
284.581
284.13
283.678
283.226
289.58
289.135
288.683
288.229
287.775
287.32
286.866
286.411
285.956
285.502
285.047
284.592
284.137
283.682
283.227
289.648
289.181
288.722