/*--------------------------------*- C++ -*----------------------------------*\
| =========                 |                                                 |
| \\      /  F ield         | OpenFOAM: The Open Source CFD Toolbox           |
|  \\    /   O peration     | Version:  5.x                                   |
|   \\  /    A nd           | Web:      www.OpenFOAM.org                      |
|    \\/     M anipulation  |                                                 |
\*---------------------------------------------------------------------------*/
FoamFile
{
    version     2.0;
    format      ascii;
    class       volScalarField;
    location    "0.1";
    object      gradTx;
}
// * * * * * * * * * * * * * * * * * * * * * * * * * * * * * * * * * * * * * //

dimensions      [0 -1 0 1 0 0 0];

internalField   nonuniform List<scalar> 
2048
(
-1.94986e-05
-8.60334e-05
-0.000131535
-0.000171992
-0.000246926
-0.000309328
-0.00037811
-0.000464332
-0.000564584
-0.000679361
-0.000812899
-0.00097064
-0.00115821
-0.00138145
-0.0016468
-0.00196164
-0.00233442
-0.0027748
-0.00329378
-0.00390373
-0.00461849
-0.00545333
-0.0064248
-0.0075506
-0.00884915
-0.0103392
-0.0120389
-0.0139652
-0.0161323
-0.0185504
-0.0212235
-0.0241472
-0.0273061
-0.0306708
-0.0341951
-0.0378135
-0.0414388
-0.0449619
-0.0482536
-0.051169
-0.0535571
-0.0552732
-0.0561948
-0.0562381
-0.055371
-0.0536209
-0.0510733
-0.0478628
-0.044156
-0.0401326
-0.0359666
-0.0318115
-0.027791
-0.0239953
-0.0204822
-0.0172801
-0.0143939
-0.0118105
-0.00950347
-0.00743787
-0.00557356
-0.00386756
-0.00227524
-0.000750922
-4.55127e-05
-0.000239359
-0.000397061
-0.00051366
-0.000717843
-0.000905487
-0.00111198
-0.00136444
-0.00165693
-0.00199273
-0.00238427
-0.00284712
-0.00339759
-0.00405281
-0.00483179
-0.00575624
-0.00685108
-0.0081448
-0.00966985
-0.0114628
-0.0135647
-0.0160205
-0.0188796
-0.0221945
-0.0260202
-0.0304124
-0.0354259
-0.0411116
-0.047513
-0.0546615
-0.062571
-0.0712306
-0.0805969
-0.0905856
-0.101062
-0.111835
-0.122645
-0.13317
-0.143023
-0.151769
-0.158949
-0.164124
-0.166917
-0.16707
-0.164482
-0.159234
-0.151588
-0.141955
-0.130844
-0.118801
-0.106354
-0.0939636
-0.081999
-0.0707267
-0.0603137
-0.0508404
-0.0423165
-0.0346983
-0.0279046
-0.0218292
-0.0163514
-0.0113433
-0.00667322
-0.00220297
-5.66973e-05
-0.00036416
-0.000645685
-0.000835368
-0.0011507
-0.00145688
-0.00179393
-0.00220018
-0.00266882
-0.00320754
-0.00383693
-0.00458179
-0.0054682
-0.00652371
-0.00777906
-0.00926948
-0.0110354
-0.0131231
-0.0155855
-0.0184821
-0.02188
-0.0258531
-0.0304823
-0.0358545
-0.0420604
-0.0491932
-0.0573443
-0.0666
-0.0770351
-0.0887057
-0.10164
-0.115827
-0.131203
-0.147638
-0.164918
-0.182735
-0.20067
-0.218191
-0.234653
-0.249324
-0.261423
-0.270189
-0.274967
-0.275297
-0.270995
-0.262197
-0.249355
-0.233184
-0.214566
-0.194445
-0.173717
-0.153161
-0.133387
-0.114828
-0.0977475
-0.0822614
-0.0683716
-0.0559935
-0.0449833
-0.035159
-0.0263174
-0.0182466
-0.010734
-0.00354541
-6.76824e-05
-0.000474672
-0.000867498
-0.00112667
-0.00154417
-0.00195922
-0.00241478
-0.00296033
-0.00358743
-0.00430861
-0.00515257
-0.00615264
-0.00734379
-0.00876304
-0.010452
-0.0124584
-0.0148372
-0.0176515
-0.0209731
-0.0248838
-0.0294754
-0.0348498
-0.0411191
-0.0484036
-0.0568305
-0.0665304
-0.0776332
-0.0902628
-0.104529
-0.120518
-0.138279
-0.15781
-0.179038
-0.201798
-0.225813
-0.250669
-0.275799
-0.300466
-0.323765
-0.344649
-0.361981
-0.374637
-0.381628
-0.382249
-0.376205
-0.363686
-0.345365
-0.322314
-0.29585
-0.267363
-0.238161
-0.209355
-0.181798
-0.156075
-0.132522
-0.111273
-0.0922991
-0.0754584
-0.0605324
-0.0472557
-0.0353378
-0.0244799
-0.0143974
-0.00475817
-7.66656e-05
-0.000571875
-0.0010636
-0.00138386
-0.00189478
-0.0024084
-0.00296872
-0.00363819
-0.00440502
-0.00528675
-0.00632017
-0.00754643
-0.00900854
-0.010752
-0.0128284
-0.0152969
-0.0182258
-0.0216939
-0.0257911
-0.0306196
-0.0362951
-0.0429468
-0.050717
-0.0597599
-0.0702392
-0.0823242
-0.0961851
-0.111986
-0.129877
-0.149981
-0.172377
-0.197084
-0.224031
-0.253035
-0.283769
-0.315733
-0.348225
-0.380312
-0.410824
-0.438376
-0.461431
-0.478432
-0.487982
-0.48906
-0.481217
-0.464698
-0.440443
-0.409958
-0.375086
-0.337749
-0.299718
-0.262461
-0.22707
-0.194262
-0.164421
-0.137662
-0.113902
-0.0929191
-0.0744044
-0.0579997
-0.0433219
-0.0299799
-0.0176247
-0.0058277
-8.01947e-05
-0.000652284
-0.00123369
-0.00160486
-0.00219944
-0.00280144
-0.00345232
-0.00423031
-0.00511788
-0.0061377
-0.00733473
-0.00875719
-0.0104553
-0.0124821
-0.0148979
-0.0177725
-0.0211866
-0.0252332
-0.0300188
-0.0356651
-0.0423105
-0.0501103
-0.0592369
-0.0698783
-0.0822351
-0.0965167
-0.112936
-0.1317
-0.153005
-0.177016
-0.203856
-0.233573
-0.266117
-0.301303
-0.338773
-0.377963
-0.418053
-0.457929
-0.496156
-0.530983
-0.560417
-0.582383
-0.594967
-0.596733
-0.587015
-0.566108
-0.535284
-0.496597
-0.452547
-0.405693
-0.358342
-0.312345
-0.269024
-0.229198
-0.193256
-0.161259
-0.133035
-0.108254
-0.0865016
-0.0673149
-0.0502135
-0.034709
-0.0203939
-0.00674647
-7.66476e-05
-0.000712681
-0.00137597
-0.00178768
-0.00245558
-0.00313645
-0.00386388
-0.00473579
-0.00572559
-0.00686124
-0.00819613
-0.00978479
-0.0116838
-0.0139527
-0.0166597
-0.0198841
-0.0237179
-0.0282669
-0.0336529
-0.0400158
-0.0475151
-0.0563314
-0.0666668
-0.0787431
-0.0927986
-0.109084
-0.127856
-0.14937
-0.173871
-0.201578
-0.232663
-0.267223
-0.305241
-0.346551
-0.390787
-0.437344
-0.48531
-0.533414
-0.579959
-0.622809
-0.659451
-0.687178
-0.70342
-0.706187
-0.694501
-0.668704
-0.630485
-0.582605
-0.528391
-0.471187
-0.413913
-0.358829
-0.307465
-0.260696
-0.218867
-0.181934
-0.149595
-0.121388
-0.0967692
-0.0751631
-0.0559869
-0.0386519
-0.0226972
-0.00751191
-6.56996e-05
-0.000750432
-0.00148801
-0.00193041
-0.00266099
-0.00341249
-0.00420299
-0.00515559
-0.00623022
-0.00746029
-0.0089081
-0.0106337
-0.0126991
-0.0151697
-0.0181204
-0.0216392
-0.025828
-0.0308044
-0.0367038
-0.0436826
-0.05192
-0.0616211
-0.0730168
-0.086363
-0.101937
-0.12003
-0.140947
-0.164992
-0.192465
-0.223645
-0.258768
-0.297992
-0.341354
-0.388722
-0.439749
-0.493814
-0.549954
-0.606766
-0.662317
-0.714071
-0.758923
-0.793404
-0.814105
-0.818289
-0.804539
-0.773224
-0.72657
-0.668256
-0.602672
-0.534121
-0.466233
-0.401685
-0.342178
-0.288578
-0.241117
-0.19959
-0.163521
-0.132285
-0.10519
-0.0815388
-0.0606429
-0.0418121
-0.0245386
-0.00812552
-4.79148e-05
-0.000763442
-0.00156753
-0.00203157
-0.00281397
-0.00362949
-0.00447016
-0.00549207
-0.00663572
-0.00794017
-0.0094773
-0.0113118
-0.0135107
-0.0161438
-0.0192923
-0.0230518
-0.0275331
-0.0328641
-0.0391924
-0.0466887
-0.0555506
-0.066006
-0.0783144
-0.092766
-0.109677
-0.129383
-0.152234
-0.178588
-0.208802
-0.243224
-0.282164
-0.325858
-0.374415
-0.42776
-0.485582
-0.547282
-0.611882
-0.677902
-0.743207
-0.804862
-0.85911
-0.901562
-0.927733
-0.933888
-0.917983
-0.88038
-0.824
-0.753732
-0.675334
-0.594289
-0.515031
-0.440647
-0.37294
-0.312678
-0.259898
-0.214168
-0.174791
-0.140947
-0.111781
-0.0864647
-0.0642047
-0.0442099
-0.0259317
-0.00859218
-2.48942e-05
-0.000750544
-0.00161302
-0.00209067
-0.00291352
-0.00378837
-0.00466667
-0.00574861
-0.00694746
-0.00830796
-0.00991249
-0.0118297
-0.0141306
-0.0168891
-0.0201917
-0.0241408
-0.0288551
-0.0344714
-0.0411475
-0.0490668
-0.0584428
-0.0695249
-0.0826006
-0.097995
-0.116064
-0.137189
-0.161764
-0.190201
-0.22292
-0.26034
-0.302861
-0.350814
-0.404398
-0.463612
-0.528206
-0.59763
-0.670946
-0.746661
-0.822499
-0.895162
-0.960181
-1.01207
-1.04498
-1.05384
-1.0357
-0.99088
-0.923186
-0.83912
-0.746211
-0.651385
-0.559967
-0.475414
-0.399522
-0.332849
-0.275134
-0.225645
-0.183419
-0.14741
-0.116587
-0.0899882
-0.0667145
-0.0458785
-0.0268986
-0.00891941
3.5908e-07
-0.000712106
-0.00162427
-0.00210873
-0.00295975
-0.00389122
-0.00479459
-0.00592927
-0.00717169
-0.00857193
-0.0102239
-0.0121995
-0.0145732
-0.0174223
-0.0208377
-0.0249282
-0.0298195
-0.035656
-0.0426037
-0.0508561
-0.0606406
-0.0722259
-0.085927
-0.102104
-0.121156
-0.143507
-0.169599
-0.199894
-0.234875
-0.27504
-0.320889
-0.37287
-0.431291
-0.496242
-0.567544
-0.644731
-0.726962
-0.812814
-0.89997
-0.984829
-1.06219
-1.12528
-1.16651
-1.17902
-1.15862
-1.10545
-1.0245
-0.924408
-0.81502
-0.705003
-0.60064
-0.505662
-0.421707
-0.348971
-0.286785
-0.234039
-0.189456
-0.151742
-0.119681
-0.0921773
-0.0682298
-0.0468621
-0.0274671
-0.00911656
2.31835e-05
-0.000650535
-0.00160275
-0.00208871
-0.00295419
-0.00394154
-0.00485686
-0.00603872
-0.00731527
-0.00874112
-0.0104228
-0.0124346
-0.014854
-0.017761
-0.0212509
-0.0254379
-0.0304544
-0.0364507
-0.0435992
-0.0521008
-0.0621937
-0.0741637
-0.0883522
-0.105157
-0.12502
-0.14841
-0.175814
-0.207745
-0.244743
-0.28739
-0.336298
-0.392053
-0.4551
-0.525627
-0.603534
-0.688458
-0.779723
-0.876082
-0.9753
-1.0736
-1.16507
-1.24144
-1.29294
-1.31035
-1.28772
-1.22485
-1.12825
-1.00948
-0.881349
-0.754638
-0.636594
-0.531058
-0.439293
-0.36096
-0.294852
-0.239405
-0.192987
-0.15404
-0.121158
-0.0931169
-0.0688203
-0.0472127
-0.0276693
-0.00919403
3.73755e-05
-0.00057043
-0.00155168
-0.00203558
-0.00290016
-0.00394442
-0.00485756
-0.00608209
-0.00738541
-0.00882497
-0.0105207
-0.0125489
-0.0149892
-0.0179242
-0.0214527
-0.0256949
-0.0307889
-0.0368901
-0.0441747
-0.052848
-0.0631558
-0.0753976
-0.0899403
-0.107221
-0.127729
-0.151979
-0.180499
-0.213845
-0.252616
-0.297471
-0.349149
-0.408405
-0.475847
-0.551769
-0.636134
-0.728698
-0.829018
-0.936142
-1.04809
-1.16109
-1.26862
-1.36073
-1.4249
-1.44882
-1.4241
-1.3499
-1.23473
-1.09407
-0.944649
-0.799688
-0.667334
-0.551271
-0.452116
-0.368777
-0.299382
-0.241838
-0.19413
-0.154426
-0.121132
-0.0929052
-0.0685644
-0.0469875
-0.0275393
-0.0091624
3.58923e-05
-0.000478212
-0.00147564
-0.001956
-0.00280283
-0.00390647
-0.00480208
-0.00606504
-0.00738944
-0.00883304
-0.0105295
-0.0125562
-0.014995
-0.0179303
-0.0214648
-0.0257242
-0.0308525
-0.0370091
-0.0443715
-0.0531463
-0.0635829
-0.0759899
-0.090758
-0.108368
-0.129361
-0.154299
-0.183747
-0.218298
-0.258599
-0.305382
-0.35952
-0.42198
-0.493572
-0.574695
-0.665335
-0.76536
-0.874639
-0.992646
-1.11785
-1.24679
-1.3725
-1.4832
-1.56299
-1.59548
-1.56898
-1.4815
-1.34415
-1.17779
-1.00422
-0.839456
-0.692336
-0.565997
-0.460053
-0.372433
-0.300466
-0.241473
-0.193032
-0.153042
-0.119729
-0.09165
-0.0675459
-0.0462464
-0.0271117
-0.00903189
1.22638e-05
-0.000381132
-0.0013797
-0.00185722
-0.00266903
-0.00383544
-0.0046973
-0.00599369
-0.00733473
-0.00877481
-0.0104608
-0.0124706
-0.0148875
-0.0177981
-0.0213082
-0.0255499
-0.0306737
-0.0368421
-0.044231
-0.0530447
-0.0635321
-0.0760046
-0.0908738
-0.10867
-0.129995
-0.155459
-0.185659
-0.221215
-0.262811
-0.311235
-0.367501
-0.432843
-0.508331
-0.594459
-0.691168
-0.798392
-0.916402
-1.04524
-1.18404
-1.33005
-1.47621
-1.60881
-1.70778
-1.75148
-1.72376
-1.62068
-1.45666
-1.26006
-1.05919
-0.873161
-0.711073
-0.574967
-0.463041
-0.371997
-0.298244
-0.238477
-0.189864
-0.150046
-0.117088
-0.0894646
-0.0658515
-0.0450497
-0.0264201
-0.00881199
-3.73388e-05
-0.000285726
-0.00126835
-0.00174557
-0.00250672
-0.00373953
-0.00455144
-0.00587468
-0.00722854
-0.00865951
-0.010326
-0.0123053
-0.0146821
-0.0175452
-0.0210031
-0.0251953
-0.03028
-0.0364223
-0.0437933
-0.0525914
-0.0630605
-0.0755065
-0.0903562
-0.108198
-0.129709
-0.155551
-0.18634
-0.222713
-0.265381
-0.315157
-0.373192
-0.441064
-0.520188
-0.611148
-0.713706
-0.827781
-0.954159
-1.09359
-1.24607
-1.41009
-1.57907
-1.73737
-1.8598
-1.91803
-1.89005
-1.76862
-1.57234
-1.34007
-1.10851
-0.899955
-0.723035
-0.577977
-0.461087
-0.367595
-0.2929
-0.23305
-0.184818
-0.145609
-0.113353
-0.0864653
-0.0635682
-0.0434565
-0.0254967
-0.00851155
-0.000111685
-0.000195947
-0.00114428
-0.00162462
-0.00232414
-0.00362639
-0.00437378
-0.00571501
-0.00707793
-0.00849603
-0.010136
-0.012073
-0.0143938
-0.0171888
-0.0205687
-0.0246819
-0.0296971
-0.0357812
-0.0430972
-0.051833
-0.0622249
-0.0745607
-0.0892729
-0.107023
-0.12858
-0.154663
-0.185893
-0.222911
-0.266449
-0.317292
-0.3767
-0.446711
-0.529214
-0.624876
-0.733077
-0.853563
-0.987808
-1.1374
-1.30331
-1.48599
-1.68022
-1.86854
-2.01955
-2.09642
-2.06973
-1.92669
-1.69109
-1.41673
-1.15095
-0.918942
-0.727756
-0.5749
-0.454271
-0.359415
-0.28466
-0.225417
-0.178099
-0.139907
-0.10867
-0.0827673
-0.0607811
-0.0415233
-0.0243722
-0.00813935
-0.0002023
-0.000111388
-0.00100767
-0.00149351
-0.00212886
-0.0035021
-0.00417403
-0.00552189
-0.00688967
-0.00829282
-0.00990134
-0.0117859
-0.0140362
-0.016745
-0.0200229
-0.0240297
-0.0289483
-0.0349483
-0.0421788
-0.0508136
-0.0610807
-0.0732325
-0.0876903
-0.105209
-0.126679
-0.152883
-0.184424
-0.221931
-0.266164
-0.317798
-0.378138
-0.449847
-0.535479
-0.635787
-0.749466
-0.87582
-1.0173
-1.17645
-1.35513
-1.55673
-1.77856
-2.00182
-2.18745
-2.28797
-2.26501
-2.09656
-1.81267
-1.48864
-1.1851
-0.929214
-0.724849
-0.565705
-0.442758
-0.347702
-0.273785
-0.215823
-0.16992
-0.133121
-0.103182
-0.078483
-0.0575724
-0.0393037
-0.0230763
-0.00770495
-0.00029233
-2.61174e-05
-0.000855947
-0.00134627
-0.00192682
-0.00337037
-0.0039615
-0.0053024
-0.00667006
-0.00805781
-0.00963197
-0.0114549
-0.0136222
-0.0162293
-0.0193822
-0.0232564
-0.0280549
-0.0339508
-0.0410723
-0.049574
-0.0596815
-0.0715874
-0.0856726
-0.102818
-0.124074
-0.150295
-0.182035
-0.219889
-0.264681
-0.316857
-0.377629
-0.450521
-0.539037
-0.644052
-0.763127
-0.894678
-1.04265
-1.21062
-1.40092
-1.62112
-1.87277
-2.13653
-2.36387
-2.49394
-2.4785
-2.28027
-1.93652
-1.55398
-1.20937
-0.929889
-0.714037
-0.550474
-0.426795
-0.332753
-0.260565
-0.204525
-0.160498
-0.125428
-0.0970295
-0.0737195
-0.0540198
-0.0368479
-0.0216388
-0.00721951
-0.000357267
7.13669e-05
-0.000684552
-0.00117244
-0.00172185
-0.00323214
-0.00374433
-0.00506316
-0.00642478
-0.0077984
-0.00933755
-0.0110901
-0.0131633
-0.0156563
-0.0186621
-0.0223779
-0.0270354
-0.0328135
-0.039809
-0.0481505
-0.0580785
-0.0696921
-0.0832819
-0.0999042
-0.120824
-0.146982
-0.178826
-0.216891
-0.262162
-0.314674
-0.375296
-0.448762
-0.53992
-0.649867
-0.774394
-0.910293
-1.06389
-1.23995
-1.44014
-1.67789
-1.96129
-2.27182
-2.54912
-2.71542
-2.7133
-2.48042
-2.06169
-1.61045
-1.222
-0.920166
-0.695182
-0.529406
-0.406706
-0.31491
-0.245308
-0.191785
-0.150049
-0.116997
-0.0903452
-0.0685769
-0.0501966
-0.0342033
-0.0200901
-0.00669635
-0.000368161
0.000196759
-0.000488229
-0.000959595
-0.00151564
-0.00308601
-0.0035288
-0.00480991
-0.00615865
-0.00752137
-0.00902746
-0.0107006
-0.0126698
-0.0150401
-0.0178766
-0.0214077
-0.0259056
-0.0315594
-0.0384182
-0.0465744
-0.0563202
-0.0676156
-0.0805778
-0.0965153
-0.116981
-0.14302
-0.174897
-0.213029
-0.258768
-0.311488
-0.37127
-0.444574
-0.538118
-0.653447
-0.783701
-0.92283
-1.08112
-1.26467
-1.47232
-1.72565
-2.04225
-2.40665
-2.7435
-2.95316
-2.97316
-2.70031
-2.18661
-1.65521
-1.22118
-0.899383
-0.668316
-0.502826
-0.382889
-0.294547
-0.228336
-0.177866
-0.138781
-0.107992
-0.083253
-0.063147
-0.0461709
-0.0314151
-0.0184611
-0.00615056
-0.000297331
0.000367211
-0.000262487
-0.000697307
-0.00130846
-0.00292922
-0.00331894
-0.00454718
-0.00587547
-0.0072328
-0.00871113
-0.010294
-0.0121503
-0.0143947
-0.0170388
-0.0203571
-0.0246784
-0.030209
-0.0369276
-0.0448698
-0.0544512
-0.0654308
-0.0776171
-0.092691
-0.112586
-0.138485
-0.170347
-0.208371
-0.254661
-0.307585
-0.365688
-0.437925
-0.533564
-0.655017
-0.791615
-0.932437
-1.0944
-1.2853
-1.49712
-1.76293
-2.11345
-2.53981
-2.94742
-3.20718
-3.26257
-2.94427
-2.30881
-1.68478
-1.20506
-0.86708
-0.633662
-0.471177
-0.355801
-0.272061
-0.209972
-0.163021
-0.126889
-0.098564
-0.0758667
-0.0575132
-0.0420056
-0.0285264
-0.0167824
-0.00559769
-0.000125858
0.000597804
-4.2961e-06
-0.000381772
-0.00110049
-0.00275927
-0.00311654
-0.00427813
-0.00557772
-0.00693806
-0.00839834
-0.00987664
-0.0116114
-0.0137342
-0.0161606
-0.0192352
-0.0233634
-0.0287813
-0.0353642
-0.0430525
-0.0525112
-0.0632172
-0.0744537
-0.0884626
-0.107669
-0.13345
-0.165283
-0.202952
-0.249989
-0.303307
-0.35869
-0.428753
-0.526115
-0.654802
-0.798877
-0.939203
-1.10371
-1.30267
-1.51432
-1.7882
-2.17232
-2.66993
-3.16156
-3.47638
-3.587
-3.21804
-2.42451
-1.69503
-1.17187
-0.823074
-0.591648
-0.435014
-0.325945
-0.247862
-0.190533
-0.147492
-0.114556
-0.0888499
-0.0682894
-0.0517494
-0.0377577
-0.0255784
-0.0150821
-0.00505133
0.000148688
0.000898263
0.000288882
-1.96907e-05
-0.000893404
-0.00257563
-0.00292163
-0.00400449
-0.00526647
-0.00664161
-0.00809979
-0.00945314
-0.0110573
-0.0130741
-0.0152531
-0.0180489
-0.0219669
-0.0272937
-0.0337562
-0.0411281
-0.0505336
-0.0610645
-0.0711375
-0.0838523
-0.102248
-0.127985
-0.159826
-0.196759
-0.244882
-0.29908
-0.350417
-0.416958
-0.515525
-0.653005
-0.806472
-0.943116
-1.10889
-1.3181
-1.52388
-1.79994
-2.21585
-2.79545
-3.3872
-3.75787
-3.9531
-3.52928
-2.52802
-1.68118
-1.1201
-0.767512
-0.542903
-0.39498
-0.293851
-0.222355
-0.170322
-0.131505
-0.10195
-0.0789732
-0.0606129
-0.0459209
-0.033478
-0.0226103
-0.013383
-0.00452035
0.000506444
0.00127118
0.000622427
0.000370294
-0.000691767
-0.00238116
-0.00273309
-0.00372669
-0.0049411
-0.00634687
-0.00782782
-0.0090262
-0.0104892
-0.0124314
-0.0143265
-0.0168033
-0.0204912
-0.025762
-0.0321358
-0.0390887
-0.0485429
-0.0590773
-0.0677132
-0.0788732
-0.0963229
-0.122159
-0.154124
-0.189718
-0.239438
-0.295434
-0.341004
-0.402414
-0.501426
-0.649771
-0.815718
-0.943999
-1.10951
-1.33348
-1.52586
-1.79667
-2.2405
-2.91458
-3.62676
-4.04602
-4.36906
-3.88833
-2.61091
-1.6379
-1.04868
-0.700923
-0.48825
-0.35179
-0.260059
-0.195932
-0.149622
-0.115264
-0.0892191
-0.069042
-0.0529181
-0.0400846
-0.0292104
-0.0196576
-0.0117005
-0.0040064
0.000903554
0.00171284
0.00101016
0.000759923
-0.000503699
-0.00218283
-0.0025494
-0.00344424
-0.0045992
-0.00605587
-0.00759736
-0.00859631
-0.00990424
-0.0118264
-0.0133896
-0.0155014
-0.0189347
-0.0242001
-0.030542
-0.0369106
-0.0465525
-0.0573812
-0.0642175
-0.0735302
-0.0898777
-0.116035
-0.14837
-0.181679
-0.233698
-0.293043
-0.330568
-0.38498
-0.483302
-0.645138
-0.828399
-0.941451
-1.10467
-1.3515
-1.52043
-1.7771
-2.24211
-3.02519
-3.88457
-4.33128
-4.84497
-4.30904
-2.66098
-1.55956
-0.957119
-0.624248
-0.428676
-0.306196
-0.225102
-0.168964
-0.128691
-0.0989517
-0.0764931
-0.0591497
-0.045275
-0.0342898
-0.0249912
-0.0167511
-0.0100408
-0.0035031
0.00127614
0.00221677
0.00148089
0.00111773
-0.000340357
-0.00199148
-0.00236924
-0.00315611
-0.0042365
-0.00576882
-0.00742713
-0.00816129
-0.00929465
-0.0112841
-0.0124498
-0.0141451
-0.0172906
-0.0226197
-0.0290261
-0.0345505
-0.04456
-0.0561311
-0.0606759
-0.0678223
-0.0828741
-0.109667
-0.142827
-0.172388
-0.227631
-0.292768
-0.31918
-0.364527
-0.46047
-0.638964
-0.846922
-0.934769
-1.09286
-1.37586
-1.50772
-1.74023
-2.21581
-3.12455
-4.16801
-4.59854
-5.39327
-4.81001
-2.66073
-1.44068
-0.845807
-0.538838
-0.365291
-0.258964
-0.189486
-0.141789
-0.107761
-0.0827285
-0.0638845
-0.0493749
-0.037743
-0.0285788
-0.0208484
-0.0139152
-0.0084032
-0.00299772
0.00154996
0.00277888
0.00208293
0.00141823
-0.000214141
-0.00182062
-0.00219172
-0.00286133
-0.00384671
-0.00548344
-0.0073412
-0.00771595
-0.00864598
-0.010836
-0.0115124
-0.0127356
-0.0155474
-0.0210285
-0.0276573
-0.0319415
-0.0425423
-0.0555212
-0.0570965
-0.0617451
-0.0752506
-0.103095
-0.137858
-0.161473
-0.22109
-0.295714
-0.306837
-0.340967
-0.432064
-0.630816
-0.874528
-0.922874
-1.07167
-1.4116
-1.48763
-1.68555
-2.15589
-3.20901
-4.489
-4.82503
-6.02943
-5.41602
-2.58554
-1.27658
-0.716141
-0.446414
-0.299279
-0.210839
-0.153683
-0.114711
-0.0870309
-0.0667301
-0.0514877
-0.039783
-0.0303711
-0.0229879
-0.0168021
-0.0111671
-0.00678373
-0.00247592
0.00165375
0.00340047
0.00288187
0.0016505
-0.000135958
-0.00168489
-0.00201629
-0.00255951
-0.00342163
-0.00519402
-0.00737078
-0.00725155
-0.00793548
-0.010523
-0.010579
-0.0112743
-0.0136876
-0.0194282
-0.0265301
-0.0289885
-0.0404496
-0.0557973
-0.0534615
-0.0552964
-0.0669201
-0.0963248
-0.133968
-0.148412
-0.213783
-0.3033
-0.293402
-0.314305
-0.39703
-0.619827
-0.915552
-0.904234
-1.03746
-1.46552
-1.45962
-1.61335
-2.05572
-3.2733
-4.86615
-4.97776
-6.77258
-6.15978
-2.40129
-1.06442
-0.570691
-0.348997
-0.231841
-0.162521
-0.118112
-0.087991
-0.066671
-0.0510701
-0.0393802
-0.0304264
-0.023199
-0.0175482
-0.012865
-0.00851602
-0.0051826
-0.00192878
0.00153155
0.00408336
0.00394516
0.00182074
-0.000112381
-0.00159838
-0.00184227
-0.00225149
-0.00295115
-0.00489017
-0.00755642
-0.00675535
-0.00712983
-0.0103982
-0.00964605
-0.00976403
-0.011688
-0.0178112
-0.025774
-0.0255636
-0.0381967
-0.0572726
-0.0497169
-0.0484828
-0.0577683
-0.0893175
-0.131852
-0.132514
-0.205213
-0.31735
-0.278533
-0.284699
-0.354137
-0.604504
-0.97572
-0.876788
-0.984969
-1.54665
-1.42221
-1.52498
-1.90774
-3.3097
-5.32737
-5.01033
-7.64644
-7.08404
-2.0615
-0.804635
-0.413241
-0.248793
-0.164136
-0.114643
-0.0831382
-0.0618517
-0.0468213
-0.0358402
-0.0276243
-0.0213466
-0.0162568
-0.0122852
-0.00904413
-0.00596514
-0.00361124
-0.00136008
0.00114713
0.00480871
0.00530607
0.00194195
-0.000143889
-0.00157373
-0.00166822
-0.00193993
-0.0024235
-0.00455528
-0.00795046
-0.00621009
-0.00618253
-0.0105305
-0.00870262
-0.00821088
-0.00951929
-0.0161557
-0.0255635
-0.0215008
-0.0356537
-0.0603452
-0.045757
-0.0413292
-0.0476541
-0.0819579
-0.132451
-0.112886
-0.194627
-0.340192
-0.261589
-0.252537
-0.302002
-0.582485
-1.0625
-0.837877
-0.906884
-1.66687
-1.37256
-1.42334
-1.7034
-3.30671
-5.91319
-4.8592
-8.68024
-8.244
-1.50387
-0.502769
-0.248667
-0.148051
-0.0972304
-0.0677533
-0.0490678
-0.036473
-0.0275935
-0.0211124
-0.0162682
-0.0125753
-0.00956662
-0.00721997
-0.0053428
-0.00351287
-0.00209603
-0.000790287
0.000471668
0.00548963
0.00689957
0.00200314
-0.000225459
-0.00162206
-0.0014912
-0.00162995
-0.00182559
-0.00416453
-0.00861979
-0.00559349
-0.00503083
-0.011009
-0.00772702
-0.00662598
-0.00714659
-0.0144197
-0.0261304
-0.0165909
-0.0326344
-0.065519
-0.0414058
-0.0338902
-0.0364113
-0.0740222
-0.137015
-0.0884138
-0.180934
-0.374782
-0.241503
-0.218522
-0.239143
-0.550244
-1.18551
-0.784196
-0.793269
-1.84166
-1.30573
-1.31333
-1.43335
-3.24739
-6.68077
-4.43936
-9.90993
-9.71001
-0.646215
-0.171905
-0.0826287
-0.0489079
-0.0320493
-0.0223084
-0.0161458
-0.0119966
-0.00907345
-0.0069406
-0.00534734
-0.00413581
-0.00314292
-0.00236788
-0.0017638
-0.0011554
-0.000673097
-0.000252199
)
;

boundaryField
{
    left
    {
        type            calculated;
        value           uniform 0;
    }
    right
    {
        type            calculated;
        value           uniform 0;
    }
    interface
    {
        type            calculated;
        value           nonuniform List<scalar> 
64
(
0.000471668
0.00548963
0.00689957
0.00200314
-0.000225459
-0.00162206
-0.0014912
-0.00162995
-0.00182559
-0.00416453
-0.00861979
-0.00559349
-0.00503083
-0.011009
-0.00772702
-0.00662598
-0.00714659
-0.0144197
-0.0261304
-0.0165909
-0.0326344
-0.065519
-0.0414058
-0.0338902
-0.0364113
-0.0740222
-0.137015
-0.0884138
-0.180934
-0.374782
-0.241503
-0.218522
-0.239143
-0.550244
-1.18551
-0.784196
-0.793269
-1.84166
-1.30573
-1.31333
-1.43335
-3.24739
-6.68077
-4.43936
-9.90993
-9.71001
-0.646215
-0.171905
-0.0826287
-0.0489079
-0.0320493
-0.0223084
-0.0161458
-0.0119966
-0.00907345
-0.0069406
-0.00534734
-0.00413581
-0.00314292
-0.00236788
-0.0017638
-0.0011554
-0.000673097
-0.000252199
)
;
    }
    bottom
    {
        type            calculated;
        value           nonuniform List<scalar> 
64
(
-1.94986e-05
-8.60334e-05
-0.000131535
-0.000171992
-0.000246926
-0.000309328
-0.00037811
-0.000464332
-0.000564584
-0.000679361
-0.000812899
-0.00097064
-0.00115821
-0.00138145
-0.0016468
-0.00196164
-0.00233442
-0.0027748
-0.00329378
-0.00390373
-0.00461849
-0.00545333
-0.0064248
-0.0075506
-0.00884915
-0.0103392
-0.0120389
-0.0139652
-0.0161323
-0.0185504
-0.0212235
-0.0241472
-0.0273061
-0.0306708
-0.0341951
-0.0378135
-0.0414388
-0.0449619
-0.0482536
-0.051169
-0.0535571
-0.0552732
-0.0561948
-0.0562381
-0.055371
-0.0536209
-0.0510733
-0.0478628
-0.044156
-0.0401326
-0.0359666
-0.0318115
-0.027791
-0.0239953
-0.0204822
-0.0172801
-0.0143939
-0.0118105
-0.00950347
-0.00743787
-0.00557356
-0.00386756
-0.00227524
-0.000750922
)
;
    }
    defaultFaces
    {
        type            empty;
    }
}


// ************************************************************************* //
