/*--------------------------------*- C++ -*----------------------------------*\
| =========                 |                                                 |
| \\      /  F ield         | OpenFOAM: The Open Source CFD Toolbox           |
|  \\    /   O peration     | Version:  5.x                                   |
|   \\  /    A nd           | Web:      www.OpenFOAM.org                      |
|    \\/     M anipulation  |                                                 |
\*---------------------------------------------------------------------------*/
FoamFile
{
    version     2.0;
    format      ascii;
    class       volScalarField;
    location    "0.1";
    object      gradTx;
}
// * * * * * * * * * * * * * * * * * * * * * * * * * * * * * * * * * * * * * //

dimensions      [0 -1 0 1 0 0 0];

internalField   nonuniform List<scalar> 
2048
(
0.00198052
0.00584017
0.00937114
0.0124077
0.01484
0.0165931
0.0176788
0.0181442
0.0180664
0.0175446
0.016684
0.0155844
0.0143346
0.013009
0.0116673
0.0103548
0.00910334
0.00793377
0.00685758
0.00587905
0.00499702
0.00420649
0.00349987
0.00286794
0.0023006
0.00178729
0.00131733
0.000880026
0.000464741
6.08625e-05
-0.000342287
-0.000755566
-0.00119016
-0.00165775
-0.00217061
-0.00274178
-0.0033851
-0.00411522
-0.00494753
-0.00589786
-0.00698221
-0.00821608
-0.00961372
-0.011187
-0.0129436
-0.0148855
-0.0170061
-0.0192873
-0.0216963
-0.0241823
-0.0266732
-0.0290736
-0.0312635
-0.0330995
-0.0344189
-0.0350483
-0.0348157
-0.0335686
-0.0311945
-0.027643
-0.022944
-0.0172189
-0.0106806
-0.00362012
0.00594639
0.0175392
0.028135
0.0372101
0.0444486
0.0496388
0.052812
0.0541214
0.0538097
0.0521811
0.0495541
0.0462287
0.0424701
0.0384998
0.0344939
0.0305848
0.0268657
0.0233964
0.0202092
0.0173152
0.0147099
0.0123774
0.0102944
0.00843309
0.00676318
0.00525324
0.00387152
0.00258637
0.00136636
0.000180155
-0.00100373
-0.00221729
-0.00349351
-0.00486677
-0.00637332
-0.00805166
-0.00994275
-0.01209
-0.014539
-0.0173371
-0.0205318
-0.0241698
-0.0282942
-0.0329411
-0.0381354
-0.0438846
-0.0501715
-0.0569454
-0.0641121
-0.0715237
-0.0789694
-0.0861674
-0.0927618
-0.0983251
-0.10237
-0.104372
-0.103809
-0.100213
-0.0932324
-0.0827033
-0.0687053
-0.0515973
-0.032019
-0.0108546
0.010001
0.0294923
0.0472658
0.062398
0.0743691
0.0828505
0.0879115
0.0898416
0.0890785
0.0861524
0.0816073
0.0759489
0.0696183
0.0629798
0.0563198
0.0498509
0.0437206
0.0380214
0.0328011
0.0280735
0.0238271
0.0200327
0.01665
0.0136319
0.0109276
0.00848509
0.00625213
0.00417689
0.00220808
0.000294713
-0.00161438
-0.00357113
-0.00562904
-0.00784395
-0.0102748
-0.0129844
-0.0160395
-0.0195114
-0.0234752
-0.0280089
-0.0331918
-0.0391022
-0.045813
-0.0533872
-0.0618704
-0.0712811
-0.0815984
-0.0927479
-0.104584
-0.116874
-0.129278
-0.141339
-0.152474
-0.161974
-0.169023
-0.172733
-0.172204
-0.166619
-0.155348
-0.138072
-0.114894
-0.0863981
-0.0536602
-0.0181975
0.0143032
0.0421431
0.06743
0.0887922
0.10549
0.117103
0.12378
0.126
0.124442
0.1199
0.113168
0.104967
0.0959165
0.0865195
0.0771649
0.0681366
0.0596272
0.0517531
0.0445703
0.0380888
0.0322853
0.0271137
0.0225141
0.0184186
0.0147555
0.0114521
0.00843607
0.00563618
0.00298221
0.000404614
-0.00216621
-0.00480084
-0.00757193
-0.0105554
-0.0138315
-0.0174859
-0.0216105
-0.0263032
-0.031668
-0.0378138
-0.0448519
-0.0528933
-0.0620434
-0.0723957
-0.0840221
-0.09696
-0.111195
-0.126642
-0.143118
-0.160318
-0.177792
-0.194918
-0.210893
-0.224728
-0.235266
-0.241228
-0.241294
-0.234231
-0.219061
-0.195245
-0.162856
-0.122696
-0.0762998
-0.0258895
0.0189989
0.0559072
0.0892485
0.117135
0.138593
0.153142
0.161078
0.163143
0.160328
0.15374
0.144453
0.133421
0.121441
0.109148
0.0970252
0.0854153
0.0745449
0.0645439
0.055467
0.0473125
0.0400391
0.0335794
0.0278507
0.0227626
0.0182216
0.0141341
0.0104083
0.00695414
0.00368354
0.000509539
-0.00265461
-0.0058967
-0.00930708
-0.0129802
-0.0170162
-0.0215225
-0.0266144
-0.0324162
-0.0390603
-0.0466862
-0.0554382
-0.0654614
-0.0768969
-0.0898732
-0.104496
-0.12083
-0.138882
-0.158569
-0.179689
-0.201887
-0.224615
-0.247106
-0.268346
-0.287066
-0.301755
-0.310704
-0.31211
-0.304241
-0.285664
-0.25552
-0.213786
-0.161457
-0.100568
-0.0341497
0.0242344
0.0711985
0.113332
0.148138
0.174395
0.191621
0.200349
0.201692
0.197039
0.187874
0.175586
0.161374
0.146211
0.130857
0.115874
0.10165
0.0884321
0.076352
0.0654517
0.055709
0.0470575
0.0394034
0.0326379
0.0266459
0.0213113
0.0165198
0.0121604
0.00812507
0.00430894
0.000608842
-0.00307775
-0.00685436
-0.0108274
-0.0151084
-0.0198156
-0.0250768
-0.0310298
-0.037824
-0.04562
-0.0545882
-0.0649063
-0.0767559
-0.090316
-0.105756
-0.123221
-0.142817
-0.164583
-0.18846
-0.214248
-0.241559
-0.269774
-0.297997
-0.325019
-0.349295
-0.368945
-0.381793
-0.385476
-0.37765
-0.356291
-0.32008
-0.268795
-0.203597
-0.127069
-0.0431893
0.0301662
0.0884537
0.14031
0.182511
0.213583
0.233127
0.242047
0.241963
0.23477
0.222404
0.206605
0.188822
0.1702
0.151606
0.133664
0.116794
0.101247
0.0871404
0.0744938
0.0632541
0.0533221
0.0445719
0.0368653
0.0300608
0.024019
0.0186051
0.0136893
0.0091469
0.00485703
0.000701679
-0.00343602
-0.00767378
-0.0121325
-0.0169387
-0.0222275
-0.0281452
-0.0348509
-0.0425184
-0.0513359
-0.0615047
-0.073237
-0.0867518
-0.102269
-0.120003
-0.140149
-0.162862
-0.188232
-0.216243
-0.246718
-0.279268
-0.313223
-0.347586
-0.38097
-0.411566
-0.437118
-0.454943
-0.462038
-0.455308
-0.43196
-0.390035
-0.328964
-0.250024
-0.156408
-0.0532215
0.0369688
0.108152
0.170859
0.220987
0.256829
0.278193
0.286539
0.284168
0.273615
0.257343
0.237474
0.215706
0.19334
0.171328
0.150337
0.130797
0.112947
0.096878
0.0825716
0.0699339
0.0588251
0.0490817
0.0405326
0.0330085
0.0263466
0.0203918
0.0149967
0.0100206
0.0053279
0.000787129
-0.00373152
-0.00835831
-0.0132268
-0.0184769
-0.0242586
-0.0307349
-0.038085
-0.0465062
-0.0562136
-0.0674396
-0.0804313
-0.0954462
-0.112748
-0.132599
-0.155251
-0.180921
-0.209768
-0.241838
-0.277009
-0.314913
-0.354865
-0.395789
-0.43615
-0.473895
-0.506396
-0.530436
-0.542283
-0.537935
-0.51361
-0.46646
-0.395375
-0.301667
-0.189213
-0.064468
0.0448409
0.130835
0.205721
0.264343
0.304797
0.327301
0.334105
0.32842
0.313567
0.292617
0.268091
0.241922
0.215534
0.18994
0.165824
0.143606
0.123495
0.10554
0.089672
0.0757445
0.063569
0.0529391
0.043648
0.0354977
0.028302
0.0218867
0.0160878
0.0107494
0.00572291
0.000864318
-0.00396753
-0.00891383
-0.014119
-0.0197343
-0.0259225
-0.0328618
-0.0407498
-0.049806
-0.0602723
-0.0724121
-0.0865073
-0.102855
-0.121763
-0.143546
-0.168516
-0.196967
-0.229139
-0.26517
-0.305018
-0.34837
-0.394555
-0.442455
-0.490417
-0.536176
-0.576755
-0.608393
-0.626549
-0.626136
-0.60211
-0.550418
-0.46914
-0.359502
-0.22615
-0.0771644
0.0540141
0.157123
0.245729
0.31341
0.358156
0.380879
0.384939
0.374733
0.354529
0.328079
0.298302
0.267328
0.236664
0.207348
0.180054
0.15517
0.132859
0.11311
0.0957909
0.0806913
0.0675655
0.0561592
0.0462274
0.0375432
0.0298983
0.0231007
0.0169707
0.0113389
0.00604451
0.000932517
-0.00414818
-0.00934807
-0.0148206
-0.0207263
-0.0272385
-0.0345485
-0.0428707
-0.0524459
-0.063542
-0.0764535
-0.0914972
-0.109009
-0.129343
-0.152865
-0.179954
-0.210987
-0.246307
-0.286167
-0.330638
-0.379498
-0.432123
-0.487385
-0.543557
-0.5982
-0.648037
-0.688782
-0.715026
-0.720403
-0.698274
-0.642976
-0.551419
-0.424568
-0.26793
-0.0915632
0.0647599
0.187738
0.291824
0.369084
0.41757
0.439294
0.43914
0.423013
0.396309
0.363512
0.327908
0.29176
0.256602
0.223456
0.192957
0.165443
0.141012
0.11958
0.100934
0.0847892
0.070835
0.0587643
0.0482926
0.0391648
0.0311524
0.0240473
0.0176558
0.011796
0.006296
0.00099122
-0.00427805
-0.00966998
-0.0153451
-0.0214712
-0.0282296
-0.0358225
-0.0444794
-0.054461
-0.0660611
-0.0796049
-0.0954446
-0.113955
-0.135532
-0.160595
-0.189591
-0.222988
-0.261248
-0.304768
-0.35377
-0.408155
-0.467382
-0.53035
-0.595296
-0.659669
-0.719959
-0.771419
-0.807749
-0.821106
-0.802859
-0.745218
-0.643441
-0.49798
-0.315319
-0.107935
0.0773996
0.223525
0.345081
0.432338
0.483694
0.502837
0.496698
0.473062
0.438628
0.398639
0.356677
0.31504
0.275217
0.238171
0.204472
0.174388
0.147938
0.12495
0.105115
0.0880616
0.0734054
0.0607836
0.0498711
0.0403866
0.0320843
0.0247425
0.0181552
0.0121288
0.00648145
0.0010402
-0.0043619
-0.00988919
-0.0157075
-0.0219894
-0.0289217
-0.036715
-0.0456117
-0.0558917
-0.0678739
-0.0819146
-0.0984015
-0.117747
-0.140387
-0.166791
-0.197473
-0.232995
-0.273955
-0.320927
-0.37432
-0.4342
-0.500141
-0.571103
-0.645328
-0.720213
-0.792121
-0.855967
-0.904595
-0.928493
-0.916567
-0.858246
-0.746514
-0.580945
-0.369139
-0.126566
0.0923133
0.265476
0.406729
0.504219
0.557158
0.571709
0.557484
0.524566
0.481122
0.433137
0.384361
0.336991
0.292386
0.251409
0.214545
0.181977
0.153631
0.129231
0.108358
0.09054
0.0753119
0.0622517
0.0509942
0.0412353
0.0327159
0.0252039
0.0184821
0.0123463
0.00660544
0.00107952
-0.00440443
-0.0100156
-0.0159233
-0.0223026
-0.0293425
-0.0372593
-0.0463066
-0.056782
-0.0690289
-0.0834359
-0.100427
-0.120449
-0.143976
-0.171522
-0.203661
-0.241051
-0.284441
-0.334613
-0.39221
-0.457506
-0.530218
-0.609397
-0.693327
-0.779414
-0.864022
-0.941936
-1.00527
-1.04267
-1.04003
-0.983193
-0.862044
-0.674771
-0.430263
-0.147754
0.10995
0.314761
0.478179
0.585855
0.63855
0.645998
0.621241
0.577098
0.52335
0.466646
0.410708
0.357446
0.307999
0.263103
0.223138
0.188193
0.158093
0.132443
0.110696
0.0922638
0.0765956
0.0632082
0.0516969
0.0417396
0.0330703
0.0254497
0.0186506
0.012458
0.006673
0.00110955
-0.00441014
-0.0100589
-0.0160082
-0.0224327
-0.0295206
-0.0374903
-0.0466048
-0.0571779
-0.0695772
-0.0842251
-0.101583
-0.122133
-0.146379
-0.17487
-0.208236
-0.247222
-0.292735
-0.34581
-0.407379
-0.477962
-0.557448
-0.644999
-0.738973
-0.836825
-0.935072
-1.02868
-1.10929
-1.1636
-1.17382
-1.12121
-0.991546
-0.780873
-0.499601
-0.171799
0.130834
0.372753
0.561053
0.678442
0.728385
0.725656
0.687573
0.63012
0.564801
0.498783
0.435476
0.376259
0.321968
0.273202
0.230226
0.193031
0.161337
0.134615
0.112169
0.0932786
0.0773027
0.0636962
0.0520161
0.0419295
0.033171
0.0254985
0.0186748
0.0124738
0.00668941
0.00113097
-0.00438315
-0.0100285
-0.0159775
-0.0224019
-0.0294849
-0.0374433
-0.0465477
-0.0571268
-0.0695712
-0.0843398
-0.101935
-0.122872
-0.147677
-0.176926
-0.211292
-0.25159
-0.298888
-0.354523
-0.419782
-0.495479
-0.581689
-0.677702
-0.78197
-0.891999
-1.00461
-1.11541
-1.21599
-1.29105
-1.31841
-1.27348
-1.13667
-0.900791
-0.578083
-0.198983
0.155575
0.441063
0.65722
0.783239
0.827062
0.810479
0.755941
0.682981
0.604906
0.529161
0.458453
0.393319
0.334227
0.281673
0.235798
0.196496
0.163384
0.135784
0.112826
0.0936359
0.0774834
0.0637619
0.0519904
0.0418348
0.0330412
0.0253687
0.0185693
0.0124038
0.00666011
0.00114465
-0.00432714
-0.0099332
-0.0158459
-0.022232
-0.0292642
-0.0371534
-0.0461768
-0.0566761
-0.0690633
-0.0838377
-0.101549
-0.122744
-0.147962
-0.177792
-0.212938
-0.254257
-0.302969
-0.360771
-0.429392
-0.509991
-0.60283
-0.707333
-0.822065
-0.944517
-1.07193
-1.20117
-1.32447
-1.42463
-1.47416
-1.44119
-1.29921
-1.0362
-0.666612
-0.229544
0.184858
0.521573
0.76884
0.901541
0.93482
0.900087
0.825664
0.73493
0.643046
0.557403
0.479473
0.408552
0.344738
0.288503
0.239858
0.198602
0.164262
0.135995
0.112721
0.0933916
0.0771909
0.0634538
0.0516589
0.0414845
0.0327031
0.0250783
0.0183482
0.0122578
0.00659049
0.00115168
-0.00424533
-0.00978078
-0.0156271
-0.0219437
-0.0288867
-0.0366549
-0.0455326
-0.055873
-0.0681048
-0.0827745
-0.100488
-0.121825
-0.147323
-0.177573
-0.213296
-0.255345
-0.305064
-0.364588
-0.436199
-0.521458
-0.620792
-0.733755
-0.859068
-0.994026
-1.1363
-1.28487
-1.43363
-1.56375
-1.64135
-1.62552
-1.48116
-1.18895
-0.766011
-0.263635
0.219438
0.616461
0.89842
1.03465
1.05166
0.993907
0.89593
0.78512
0.678572
0.58316
0.49843
0.421931
0.353483
0.2937
0.242425
0.199372
0.164007
0.135301
0.111918
0.0926049
0.07648
0.0628219
0.0510608
0.0409063
0.0321769
0.0246443
0.0180259
0.0120459
0.00648584
0.00115324
-0.00414043
-0.0095782
-0.0153334
-0.0215569
-0.0283799
-0.0359808
-0.0446547
-0.0547643
-0.0667462
-0.0812037
-0.0988145
-0.120192
-0.145853
-0.176376
-0.212499
-0.254998
-0.305277
-0.366018
-0.440204
-0.529865
-0.635528
-0.756868
-0.892867
-1.04027
-1.19699
-1.36526
-1.54211
-1.70759
-1.82011
-1.82757
-1.68475
-1.36109
-0.87693
-0.301264
0.260103
0.728235
1.04889
1.18381
1.17728
1.09118
0.965812
0.832626
0.710808
0.606124
0.515306
0.433478
0.360464
0.297288
0.243529
0.198834
0.162657
0.133758
0.110483
0.0913366
0.0754058
0.0619178
0.0502344
0.0401252
0.0314812
0.0240827
0.0176164
0.0117775
0.00635113
0.00115049
-0.00401467
-0.00933129
-0.0149758
-0.0210903
-0.0277703
-0.0351623
-0.0435804
-0.0533956
-0.0650355
-0.0791749
-0.0965849
-0.117918
-0.143643
-0.174305
-0.210686
-0.253379
-0.303727
-0.365113
-0.441421
-0.535223
-0.647029
-0.776596
-0.923434
-1.08316
-1.25329
-1.44098
-1.64831
-1.85513
-2.01046
-2.04835
-1.9125
-1.55494
-0.999714
-0.342211
0.307608
0.859745
1.22373
1.35016
1.31095
1.19096
1.0343
0.876448
0.739068
0.626046
0.530183
0.443263
0.365687
0.29931
0.243214
0.197017
0.160253
0.13143
0.108494
0.0896476
0.0740221
0.0607942
0.049217
0.0391626
0.0306315
0.0234086
0.017134
0.0114619
0.00619091
0.00114455
-0.00386992
-0.0090448
-0.0145633
-0.0205613
-0.027084
-0.0342281
-0.0423447
-0.0518124
-0.0630193
-0.0767335
-0.0938515
-0.115074
-0.140781
-0.171461
-0.208005
-0.250677
-0.300547
-0.361929
-0.439863
-0.53757
-0.655321
-0.792868
-0.950832
-1.12277
-1.30458
-1.51052
-1.75034
-2.00516
-2.21231
-2.2886
-2.16731
-1.77323
-1.13422
-0.385929
0.362565
1.0142
1.4271
1.53462
1.45135
1.29221
1.10033
0.915523
0.762665
0.642749
0.543274
0.451396
0.369155
0.299828
0.241536
0.193951
0.156836
0.128385
0.106032
0.0875961
0.0723799
0.0595063
0.048044
0.0380362
0.0296407
0.022636
0.0165931
0.0111078
0.0060091
0.00113635
-0.00370773
-0.00872235
-0.0141028
-0.0199857
-0.0263469
-0.0332042
-0.040979
-0.0500602
-0.0607416
-0.0739198
-0.0906597
-0.111729
-0.137355
-0.167928
-0.204601
-0.247107
-0.295884
-0.356519
-0.435542
-0.53697
-0.660474
-0.805593
-0.975203
-1.15948
-1.35033
-1.57225
-1.84602
-2.15624
-2.42553
-2.54861
-2.45259
-2.01925
-1.27956
-0.431408
0.425267
1.19516
1.66407
1.73773
1.5965
1.39383
1.16286
0.948726
0.780918
0.656128
0.554948
0.458022
0.370841
0.298928
0.238561
0.189662
0.152446
0.124695
0.10319
0.0852353
0.0705253
0.0581125
0.0467485
0.0367579
0.0285185
0.0217781
0.0160091
0.0107234
0.00580882
0.00112661
-0.00352947
-0.00836655
-0.0135987
-0.019378
-0.0255852
-0.0321132
-0.0395108
-0.0481855
-0.0582449
-0.0707686
-0.0870475
-0.107947
-0.133452
-0.163775
-0.200621
-0.24292
-0.289893
-0.348929
-0.42846
-0.533519
-0.66262
-0.814611
-0.996753
-1.19399
-1.3901
-1.62446
-1.93284
-2.30678
-2.65003
-2.82795
-2.77242
-2.29713
-1.43374
-0.477033
0.495415
1.40651
1.94093
1.95947
1.74343
1.49485
1.22086
0.974864
0.793166
0.666158
0.56577
0.463298
0.370669
0.296729
0.234368
0.184165
0.14712
0.120436
0.100073
0.0826093
0.0684971
0.056677
0.045361
0.0353337
0.0272715
0.0208473
0.0153988
0.0103155
0.00559227
0.00111588
-0.00333647
-0.00797915
-0.0130529
-0.0187506
-0.024827
-0.0309735
-0.0379617
-0.0462377
-0.0555694
-0.0673087
-0.0830435
-0.103789
-0.129161
-0.15904
-0.196199
-0.238413
-0.28274
-0.339194
-0.418596
-0.527341
-0.661969
-0.819648
-1.01571
-1.22741
-1.42362
-1.66536
-2.00793
-2.45501
-2.886
-3.12499
-3.13171
-2.61217
-1.59317
-0.520431
0.571726
1.65242
2.26563
2.199
1.88806
1.59466
1.27343
0.992657
0.798771
0.672879
0.576546
0.467366
0.36848
0.293399
0.229046
0.177461
0.140891
0.115684
0.0968001
0.0797486
0.0663251
0.0552733
0.0439076
0.033762
0.0259036
0.0198554
0.0147812
0.00988995
0.00536049
0.00110452
-0.00313021
-0.00756135
-0.0124634
-0.018114
-0.0241036
-0.0297984
-0.036346
-0.0442708
-0.0527536
-0.0635632
-0.078666
-0.0993168
-0.124584
-0.153728
-0.191454
-0.233939
-0.274588
-0.327335
-0.405895
-0.51859
-0.658861
-0.820239
-1.03227
-1.26145
-1.4507
-1.69312
-2.068
-2.599
-3.13424
-3.43631
-3.53653
-2.97145
-1.75204
-0.55834
0.651379
1.93723
2.6483
2.45426
2.02486
1.69331
1.31973
1.0007
0.797147
0.676378
0.588386
0.470323
0.363994
0.289185
0.222693
0.169527
0.133789
0.110519
0.0935167
0.0766638
0.0640265
0.053989
0.042409
0.0320325
0.0244164
0.0188137
0.0141786
0.00945013
0.00511336
0.00109295
-0.00291245
-0.00711423
-0.0118248
-0.0174758
-0.0234518
-0.0285955
-0.0346685
-0.0423468
-0.0498335
-0.0595495
-0.0739204
-0.0945856
-0.119839
-0.147791
-0.186474
-0.229929
-0.265597
-0.31336
-0.390254
-0.507443
-0.653825
-0.815646
-1.04653
-1.2985
-1.47126
-1.70595
-2.10925
-2.73661
-3.39666
-3.75575
-3.99437
-3.38445
-1.90143
-0.586534
0.729267
2.26542
3.10205
2.72149
2.14655
1.79197
1.35903
0.997438
0.787778
0.676738
0.602783
0.47216
0.356773
0.284447
0.215408
0.160314
0.12584
0.105017
0.0903982
0.0733372
0.0616032
0.0529328
0.0408781
0.0301251
0.0228105
0.0177326
0.0136179
0.00899649
0.00484945
0.00108183
-0.00268542
-0.0066394
-0.011127
-0.0168399
-0.0229169
-0.0273651
-0.0329207
-0.0405396
-0.0468421
-0.0552803
-0.0687977
-0.0896478
-0.115078
-0.141123
-0.181307
-0.226916
-0.255906
-0.297263
-0.371502
-0.494088
-0.647671
-0.804762
-1.05835
-1.34184
-1.4852
-1.70219
-2.12733
-2.86541
-3.67707
-4.07328
-4.51462
-3.86408
-2.02822
-0.599862
0.797014
2.64136
3.64388
2.99463
2.24374
1.8935
1.39058
0.981072
0.770275
0.673977
0.621721
0.472709
0.346166
0.279714
0.20728
0.149732
0.117075
0.0992448
0.0876643
0.069713
0.0590385
0.0522429
0.0393156
0.028009
0.0210864
0.0166212
0.0131324
0.00852504
0.00456617
0.00107245
-0.00245195
-0.00613982
-0.0103546
-0.0162049
-0.0225566
-0.0260995
-0.0310773
-0.0389405
-0.0438073
-0.0507651
-0.0632714
-0.0845478
-0.110504
-0.133537
-0.175937
-0.225568
-0.245615
-0.279036
-0.349387
-0.478692
-0.641619
-0.785996
-1.06721
-1.39593
-1.49229
-1.68043
-2.11724
-2.98242
-3.98232
-4.37334
-5.10906
-4.42779
-2.11361
-0.592465
0.841722
3.0692
4.29589
3.26446
2.3046
2.00321
1.41346
0.949531
0.744441
0.667938
0.647811
0.471549
0.331261
0.275755
0.19837
0.137644
0.107532
0.0932534
0.0855946
0.0656841
0.0562934
0.0520982
0.0377057
0.025641
0.0192472
0.0154862
0.0127638
0.00802559
0.00425998
0.00106714
-0.00221558
-0.00562092
-0.00948669
-0.0155619
-0.0224458
-0.0247812
-0.0290903
-0.0376649
-0.040749
-0.0460129
-0.0572956
-0.0793163
-0.106397
-0.124755
-0.170264
-0.226729
-0.234756
-0.258685
-0.323554
-0.461357
-0.637465
-0.757147
-1.07204
-1.46668
-1.49189
-1.63974
-2.07321
-3.08375
-4.3238
-4.63279
-5.79246
-5.09915
-2.13131
-0.558279
0.844434
3.55263
5.08667
3.5176
2.3144
2.1297
1.42629
0.900393
0.710376
0.658148
0.684455
0.467903
0.310826
0.273663
0.188679
0.123861
0.0972683
0.0870647
0.0845483
0.061076
0.053303
0.0527318
0.0360077
0.0229661
0.0173007
0.0143298
0.0125652
0.00747947
0.00392686
0.00106981
-0.00198053
-0.00509189
-0.00849581
-0.0148916
-0.0226824
-0.0233816
-0.0268829
-0.0368613
-0.0376747
-0.0410353
-0.0508023
-0.0739605
-0.103142
-0.114383
-0.164073
-0.231477
-0.223254
-0.236254
-0.293529
-0.442046
-0.637789
-0.715272
-1.07095
-1.56189
-1.48268
-1.57993
-1.98868
-3.16401
-4.71955
-4.81839
-6.58339
-5.90959
-2.04526
-0.491908
0.77829
4.09462
6.05304
3.73532
2.2552
2.28599
1.42678
0.830841
0.668614
0.643618
0.736068
0.46051
0.283257
0.274968
0.178101
0.10813
0.0863728
0.0806534
0.0849898
0.0556275
0.0499733
0.0544469
0.0341472
0.0199167
0.015263
0.0131475
0.0126041
0.00685652
0.00356302
0.00108645
-0.00175166
-0.00456726
-0.00734804
-0.0141601
-0.0233939
-0.0218599
-0.0243412
-0.0367218
-0.0345724
-0.0358523
-0.0437003
-0.0684504
-0.101267
-0.101893
-0.156994
-0.241183
-0.210872
-0.21186
-0.258708
-0.420475
-0.646213
-0.656549
-1.06094
-1.69172
-1.46215
-1.50185
-1.85622
-3.21537
-5.19685
-4.88359
-7.50502
-6.9006
-1.80687
-0.389997
0.606385
4.6972
7.24194
3.89208
2.10543
2.49074
1.41117
0.737645
0.620308
0.622594
0.808328
0.447467
0.246514
0.281759
0.166371
0.0901342
0.0749851
0.0739239
0.0875193
0.0489682
0.046178
0.0576349
0.0320036
0.0164146
0.0131621
0.0119241
0.0129673
0.00611157
0.00316608
0.00112566
-0.0015342
-0.00406861
-0.00600289
-0.0133145
-0.0247457
-0.020162
-0.0213046
-0.0374955
-0.0314022
-0.0304981
-0.0358739
-0.0626989
-0.101487
-0.0866043
-0.148461
-0.257597
-0.197142
-0.185739
-0.218355
-0.395974
-0.667699
-0.576144
-1.03754
-1.8693
-1.42608
-1.40789
-1.66762
-3.2263
-5.79552
-4.76482
-8.5862
-8.12614
-1.3517
-0.253218
0.279363
5.36116
8.71258
3.95393
1.83964
2.76964
1.37347
0.61719
0.567448
0.592235
0.908488
0.426047
0.198081
0.296836
0.15298
0.0694939
0.0633177
0.0666797
0.0929095
0.0405918
0.0417561
0.0627963
0.0293953
0.012373
0.0110429
0.0106289
0.0137651
0.00518016
0.0027366
0.0011991
-0.00133335
-0.00362646
-0.00441379
-0.012276
-0.0269494
-0.0182192
-0.0175551
-0.0395035
-0.0280843
-0.0250296
-0.0271848
-0.0565366
-0.104753
-0.0676647
-0.137661
-0.282933
-0.18128
-0.158307
-0.171609
-0.367295
-0.708895
-0.468086
-0.994376
-2.11144
-1.36774
-1.30248
-1.41398
-3.1799
-6.57192
-4.37723
-9.86257
-9.65543
-0.595613
-0.0889744
)
;

boundaryField
{
    left
    {
        type            calculated;
        value           uniform 0;
    }
    right
    {
        type            calculated;
        value           uniform 0;
    }
    interface
    {
        type            calculated;
        value           nonuniform List<scalar> 
64
(
0.279363
5.36116
8.71258
3.95393
1.83964
2.76964
1.37347
0.61719
0.567448
0.592235
0.908488
0.426047
0.198081
0.296836
0.15298
0.0694939
0.0633177
0.0666797
0.0929095
0.0405918
0.0417561
0.0627963
0.0293953
0.012373
0.0110429
0.0106289
0.0137651
0.00518016
0.0027366
0.0011991
-0.00133335
-0.00362646
-0.00441379
-0.012276
-0.0269494
-0.0182192
-0.0175551
-0.0395035
-0.0280843
-0.0250296
-0.0271848
-0.0565366
-0.104753
-0.0676647
-0.137661
-0.282933
-0.18128
-0.158307
-0.171609
-0.367295
-0.708895
-0.468086
-0.994376
-2.11144
-1.36774
-1.30248
-1.41398
-3.1799
-6.57192
-4.37723
-9.86257
-9.65543
-0.595613
-0.0889744
)
;
    }
    bottom
    {
        type            calculated;
        value           nonuniform List<scalar> 
64
(
0.00198052
0.00584017
0.00937114
0.0124077
0.01484
0.0165931
0.0176788
0.0181442
0.0180664
0.0175446
0.016684
0.0155844
0.0143346
0.013009
0.0116673
0.0103548
0.00910334
0.00793377
0.00685758
0.00587905
0.00499702
0.00420649
0.00349987
0.00286794
0.0023006
0.00178729
0.00131733
0.000880026
0.000464741
6.08625e-05
-0.000342287
-0.000755566
-0.00119016
-0.00165775
-0.00217061
-0.00274178
-0.0033851
-0.00411522
-0.00494753
-0.00589786
-0.00698221
-0.00821608
-0.00961372
-0.011187
-0.0129436
-0.0148855
-0.0170061
-0.0192873
-0.0216963
-0.0241823
-0.0266732
-0.0290736
-0.0312635
-0.0330995
-0.0344189
-0.0350483
-0.0348157
-0.0335686
-0.0311945
-0.027643
-0.022944
-0.0172189
-0.0106806
-0.00362012
)
;
    }
    defaultFaces
    {
        type            empty;
    }
}


// ************************************************************************* //
