/*--------------------------------*- C++ -*----------------------------------*\
| =========                 |                                                 |
| \\      /  F ield         | OpenFOAM: The Open Source CFD Toolbox           |
|  \\    /   O peration     | Version:  5.x                                   |
|   \\  /    A nd           | Web:      www.OpenFOAM.org                      |
|    \\/     M anipulation  |                                                 |
\*---------------------------------------------------------------------------*/
FoamFile
{
    version     2.0;
    format      ascii;
    class       volScalarField;
    location    "0.1";
    object      gradTy;
}
// * * * * * * * * * * * * * * * * * * * * * * * * * * * * * * * * * * * * * //

dimensions      [0 -1 0 1 0 0 0];

internalField   nonuniform List<scalar> 
2048
(
-31.7375
-31.7288
-31.7118
-31.6875
-31.6572
-31.6223
-31.5844
-31.5448
-31.5049
-31.4658
-31.4283
-31.393
-31.3603
-31.3305
-31.3037
-31.2798
-31.2587
-31.2402
-31.2242
-31.2105
-31.1987
-31.1888
-31.1805
-31.1736
-31.1681
-31.1637
-31.1603
-31.158
-31.1565
-31.1559
-31.1562
-31.1574
-31.1595
-31.1626
-31.1667
-31.172
-31.1786
-31.1866
-31.1964
-31.208
-31.2219
-31.2383
-31.2575
-31.28
-31.306
-31.3361
-31.3706
-31.41
-31.4545
-31.5043
-31.5597
-31.6205
-31.6864
-31.7568
-31.8309
-31.9072
-31.9842
-32.0597
-32.1313
-32.1965
-32.2526
-32.2973
-32.3283
-32.3442
-31.7388
-31.7297
-31.7119
-31.6866
-31.6551
-31.6189
-31.5797
-31.539
-31.4982
-31.4583
-31.4202
-31.3845
-31.3516
-31.3216
-31.2948
-31.2709
-31.2499
-31.2315
-31.2157
-31.2021
-31.1905
-31.1807
-31.1725
-31.1657
-31.1602
-31.1559
-31.1526
-31.1503
-31.1489
-31.1483
-31.1486
-31.1498
-31.1518
-31.1548
-31.1589
-31.164
-31.1705
-31.1784
-31.188
-31.1995
-31.2131
-31.2292
-31.2482
-31.2704
-31.2962
-31.326
-31.3603
-31.3994
-31.4437
-31.4936
-31.5491
-31.6102
-31.6767
-31.748
-31.8232
-31.9011
-31.9798
-32.0573
-32.1311
-32.1985
-32.2567
-32.303
-32.3353
-32.3519
-31.7417
-31.7317
-31.7124
-31.685
-31.651
-31.6124
-31.5708
-31.5279
-31.4853
-31.4439
-31.4048
-31.3683
-31.3349
-31.3048
-31.2779
-31.2541
-31.2332
-31.2151
-31.1995
-31.1862
-31.1748
-31.1653
-31.1573
-31.1508
-31.1455
-31.1413
-31.1381
-31.1359
-31.1345
-31.1339
-31.1342
-31.1353
-31.1373
-31.1402
-31.144
-31.149
-31.1553
-31.1629
-31.1721
-31.1832
-31.1965
-31.2121
-31.2306
-31.2522
-31.2775
-31.3068
-31.3405
-31.3793
-31.4234
-31.4732
-31.5289
-31.5906
-31.6582
-31.7311
-31.8085
-31.8891
-31.9712
-32.0526
-32.1306
-32.2023
-32.2645
-32.3143
-32.3491
-32.367
-31.7465
-31.7353
-31.7136
-31.683
-31.6455
-31.6031
-31.558
-31.5121
-31.4668
-31.4234
-31.3828
-31.3453
-31.3113
-31.2809
-31.2539
-31.2303
-31.2097
-31.192
-31.1768
-31.1638
-31.1529
-31.1437
-31.136
-31.1298
-31.1247
-31.1207
-31.1177
-31.1155
-31.1142
-31.1137
-31.114
-31.115
-31.1168
-31.1196
-31.1232
-31.1279
-31.1338
-31.1411
-31.1499
-31.1604
-31.1731
-31.1881
-31.2058
-31.2267
-31.2511
-31.2796
-31.3127
-31.3508
-31.3945
-31.4442
-31.5002
-31.5627
-31.6317
-31.7067
-31.7872
-31.8718
-31.9588
-32.0458
-32.13
-32.208
-32.2762
-32.331
-32.3696
-32.3894
-31.7537
-31.7408
-31.7159
-31.681
-31.6387
-31.5914
-31.5417
-31.4917
-31.4432
-31.3973
-31.3548
-31.3161
-31.2815
-31.2507
-31.2238
-31.2004
-31.1803
-31.163
-31.1483
-31.1359
-31.1254
-31.1167
-31.1095
-31.1035
-31.0988
-31.095
-31.0922
-31.0902
-31.089
-31.0885
-31.0887
-31.0897
-31.0914
-31.0939
-31.0973
-31.1016
-31.1071
-31.1139
-31.1221
-31.132
-31.1439
-31.158
-31.1749
-31.1948
-31.2182
-31.2457
-31.2778
-31.3151
-31.3581
-31.4075
-31.4637
-31.5271
-31.5977
-31.6755
-31.7597
-31.8493
-31.9426
-32.0369
-32.1292
-32.2155
-32.2916
-32.3534
-32.3969
-32.4195
-31.7642
-31.749
-31.7199
-31.6795
-31.6309
-31.5774
-31.522
-31.4672
-31.4148
-31.3659
-31.3214
-31.2814
-31.246
-31.2151
-31.1883
-31.1653
-31.1457
-31.129
-31.115
-31.1032
-31.0933
-31.0852
-31.0784
-31.0729
-31.0685
-31.065
-31.0624
-31.0606
-31.0595
-31.059
-31.0592
-31.0601
-31.0616
-31.0639
-31.067
-31.071
-31.076
-31.0822
-31.0897
-31.0988
-31.1098
-31.123
-31.1387
-31.1574
-31.1796
-31.2059
-31.2368
-31.2729
-31.3151
-31.364
-31.4203
-31.4845
-31.5569
-31.6376
-31.7262
-31.8217
-31.9224
-32.0257
-32.128
-32.2248
-32.3111
-32.3816
-32.4317
-32.4576
-31.7787
-31.7605
-31.726
-31.6786
-31.6223
-31.5612
-31.4991
-31.4386
-31.3817
-31.3296
-31.2829
-31.2416
-31.2057
-31.1746
-31.1481
-31.1257
-31.1067
-31.0908
-31.0776
-31.0665
-31.0574
-31.0498
-31.0436
-31.0386
-31.0346
-31.0315
-31.0291
-31.0274
-31.0264
-31.026
-31.0261
-31.0269
-31.0283
-31.0303
-31.0331
-31.0366
-31.0411
-31.0466
-31.0534
-31.0617
-31.0717
-31.0837
-31.0982
-31.1156
-31.1363
-31.1611
-31.1905
-31.2253
-31.2663
-31.3144
-31.3705
-31.4354
-31.5096
-31.5934
-31.6868
-31.7889
-31.8982
-32.012
-32.1263
-32.2359
-32.3347
-32.4162
-32.4743
-32.5046
-31.798
-31.7762
-31.7349
-31.6788
-31.613
-31.543
-31.4729
-31.4059
-31.3442
-31.2887
-31.2398
-31.1973
-31.1608
-31.1299
-31.1039
-31.0821
-31.064
-31.0491
-31.0367
-31.0265
-31.0182
-31.0113
-31.0057
-31.0012
-30.9977
-30.9949
-30.9928
-30.9913
-30.9904
-30.99
-30.9902
-30.9908
-30.992
-30.9938
-30.9962
-30.9993
-31.0032
-31.008
-31.014
-31.0213
-31.0302
-31.041
-31.0541
-31.0699
-31.089
-31.112
-31.1397
-31.1728
-31.2124
-31.2594
-31.3151
-31.3803
-31.4561
-31.5431
-31.6414
-31.7508
-31.8697
-31.9955
-32.1239
-32.2488
-32.3627
-32.4575
-32.5257
-32.5614
-31.8233
-31.7968
-31.7471
-31.6802
-31.6031
-31.5224
-31.4433
-31.3693
-31.3024
-31.2434
-31.1923
-31.1488
-31.1121
-31.0815
-31.0561
-31.0353
-31.0183
-31.0044
-30.9931
-30.9838
-30.9764
-30.9703
-30.9654
-30.9614
-30.9583
-30.9559
-30.9541
-30.9529
-30.9521
-30.9518
-30.9519
-30.9524
-30.9534
-30.9549
-30.9569
-30.9595
-30.9628
-30.9669
-30.972
-30.9783
-30.986
-30.9955
-31.007
-31.0212
-31.0385
-31.0596
-31.0852
-31.1163
-31.154
-31.1996
-31.2544
-31.3197
-31.3968
-31.4867
-31.5901
-31.707
-31.8364
-31.9758
-32.1204
-32.2633
-32.3952
-32.5062
-32.5866
-32.6288
-31.8557
-31.8232
-31.763
-31.683
-31.5924
-31.4994
-31.4101
-31.3284
-31.2562
-31.1938
-31.1409
-31.0966
-31.0599
-31.0298
-31.0054
-30.9857
-30.9699
-30.9573
-30.9472
-30.939
-30.9325
-30.9272
-30.923
-30.9197
-30.9171
-30.9151
-30.9136
-30.9125
-30.9119
-30.9116
-30.9117
-30.9121
-30.9129
-30.9141
-30.9157
-30.9178
-30.9205
-30.9239
-30.9281
-30.9333
-30.9397
-30.9478
-30.9577
-30.9701
-30.9854
-31.0043
-31.0276
-31.0564
-31.092
-31.1356
-31.1891
-31.254
-31.332
-31.4245
-31.5328
-31.6574
-31.798
-31.9523
-32.1153
-32.279
-32.4325
-32.5629
-32.658
-32.7081
-31.8963
-31.8564
-31.7832
-31.6872
-31.5806
-31.4734
-31.373
-31.2833
-31.2057
-31.1402
-31.0857
-31.041
-31.0046
-30.9755
-30.9523
-30.934
-30.9196
-30.9084
-30.8995
-30.8926
-30.887
-30.8827
-30.8792
-30.8765
-30.8744
-30.8728
-30.8716
-30.8708
-30.8703
-30.87
-30.8701
-30.8704
-30.871
-30.8719
-30.8731
-30.8747
-30.8768
-30.8794
-30.8826
-30.8867
-30.8919
-30.8984
-30.9067
-30.9172
-30.9303
-30.9469
-30.9677
-30.9938
-31.0267
-31.068
-31.1196
-31.1836
-31.2619
-31.3566
-31.4694
-31.6017
-31.7538
-31.9242
-32.1079
-32.2958
-32.4745
-32.628
-32.7408
-32.8004
-31.9465
-31.8974
-31.808
-31.6927
-31.5673
-31.4442
-31.3316
-31.2336
-31.151
-31.0828
-31.0272
-30.9824
-30.9468
-30.9188
-30.8971
-30.8805
-30.8678
-30.8581
-30.8507
-30.8449
-30.8405
-30.837
-30.8343
-30.8322
-30.8306
-30.8294
-30.8286
-30.828
-30.8276
-30.8274
-30.8274
-30.8276
-30.8281
-30.8287
-30.8295
-30.8306
-30.8321
-30.8339
-30.8362
-30.8391
-30.843
-30.8479
-30.8545
-30.8629
-30.8738
-30.8879
-30.9059
-30.929
-30.9589
-30.9973
-31.0465
-31.1089
-31.187
-31.2832
-31.3999
-31.5394
-31.7032
-31.8908
-32.0975
-32.313
-32.5212
-32.7023
-32.8361
-32.907
-32.0079
-31.9472
-31.8379
-31.6993
-31.552
-31.411
-31.2855
-31.1792
-31.092
-31.0217
-30.9656
-30.9212
-30.8868
-30.8603
-30.8404
-30.8257
-30.8148
-30.8068
-30.8009
-30.7965
-30.7932
-30.7906
-30.7887
-30.7872
-30.7862
-30.7854
-30.7849
-30.7845
-30.7843
-30.7841
-30.7841
-30.7842
-30.7844
-30.7848
-30.7853
-30.7859
-30.7867
-30.7877
-30.7891
-30.7909
-30.7933
-30.7967
-30.8014
-30.8078
-30.8164
-30.8278
-30.8428
-30.8626
-30.889
-30.924
-30.9702
-31.0304
-31.1075
-31.2045
-31.3243
-31.4703
-31.6456
-31.8512
-32.0831
-32.33
-32.5727
-32.7863
-32.945
-33.0293
-32.0821
-32.007
-31.8731
-31.7064
-31.5338
-31.373
-31.2341
-31.1199
-31.0288
-30.9572
-30.9012
-30.8579
-30.8249
-30.8004
-30.7826
-30.77
-30.7612
-30.755
-30.7507
-30.7477
-30.7454
-30.7438
-30.7426
-30.7418
-30.7413
-30.741
-30.7407
-30.7406
-30.7405
-30.7404
-30.7404
-30.7404
-30.7404
-30.7405
-30.7406
-30.7408
-30.741
-30.7412
-30.7416
-30.7422
-30.7433
-30.7451
-30.748
-30.7523
-30.7585
-30.7671
-30.7789
-30.7951
-30.8175
-30.8486
-30.8912
-30.9485
-31.0239
-31.1208
-31.2428
-31.3942
-31.5802
-31.8041
-32.0635
-32.346
-32.6287
-32.8808
-33.0689
-33.1686
-32.171
-32.078
-31.9136
-31.7133
-31.5116
-31.3295
-31.1769
-31.0554
-30.9615
-30.8896
-30.8345
-30.7926
-30.7616
-30.7393
-30.7239
-30.7137
-30.7071
-30.703
-30.7003
-30.6987
-30.6976
-30.6969
-30.6965
-30.6963
-30.6963
-30.6964
-30.6965
-30.6965
-30.6966
-30.6966
-30.6965
-30.6964
-30.6962
-30.6961
-30.6958
-30.6955
-30.6951
-30.6946
-30.6941
-30.6936
-30.6933
-30.6935
-30.6945
-30.6966
-30.7004
-30.7061
-30.7146
-30.7269
-30.7449
-30.7715
-30.8099
-30.8637
-30.9366
-31.0325
-31.1555
-31.3108
-31.5062
-31.7485
-32.0374
-32.3598
-32.6889
-32.9863
-33.2089
-33.3265
-32.2766
-32.1615
-31.9595
-31.7189
-31.4844
-31.2794
-31.1132
-30.9856
-30.8903
-30.8193
-30.7658
-30.7258
-30.6972
-30.6775
-30.6647
-30.6571
-30.6529
-30.6509
-30.65
-30.6498
-30.6498
-30.65
-30.6504
-30.6508
-30.6513
-30.6518
-30.6522
-30.6525
-30.6527
-30.6527
-30.6526
-30.6524
-30.6521
-30.6517
-30.6511
-30.6504
-30.6494
-30.6482
-30.6468
-30.6451
-30.6434
-30.642
-30.6411
-30.6412
-30.6425
-30.6454
-30.6504
-30.6584
-30.6717
-30.6932
-30.7268
-30.7762
-30.8458
-30.94
-31.0627
-31.22
-31.423
-31.6829
-32.0032
-32.3703
-32.7527
-33.1039
-33.3664
-33.5041
-32.4014
-32.2591
-32.0106
-31.7217
-31.4507
-31.2218
-31.0425
-30.9104
-30.8154
-30.7467
-30.6955
-30.6579
-30.6319
-30.6151
-30.6053
-30.6005
-30.5989
-30.5991
-30.6
-30.6012
-30.6024
-30.6034
-30.6045
-30.6055
-30.6065
-30.6075
-30.6082
-30.6087
-30.609
-30.6091
-30.6089
-30.6086
-30.6082
-30.6075
-30.6066
-30.6055
-30.604
-30.6021
-30.5998
-30.597
-30.5939
-30.5908
-30.5882
-30.5861
-30.585
-30.5851
-30.5865
-30.5901
-30.5981
-30.614
-30.6421
-30.6866
-30.7522
-30.8439
-30.965
-31.1218
-31.3298
-31.6058
-31.9593
-32.3758
-32.8195
-33.2344
-33.543
-33.7027
-32.5477
-32.3724
-32.0662
-31.72
-31.4089
-31.1556
-30.9643
-30.8297
-30.7372
-30.6723
-30.624
-30.589
-30.5661
-30.5525
-30.5458
-30.5441
-30.5453
-30.5479
-30.5506
-30.5531
-30.5554
-30.5573
-30.559
-30.5606
-30.5621
-30.5635
-30.5645
-30.5652
-30.5656
-30.5657
-30.5656
-30.5652
-30.5645
-30.5637
-30.5625
-30.5611
-30.5591
-30.5565
-30.5533
-30.5494
-30.5449
-30.5402
-30.5358
-30.5317
-30.5281
-30.5255
-30.5235
-30.5223
-30.5246
-30.5343
-30.5565
-30.5952
-30.6559
-30.7447
-30.863
-31.0166
-31.2259
-31.5158
-31.9038
-32.3748
-32.8882
-33.3793
-33.7405
-33.9234
-32.7185
-32.5037
-32.1257
-31.7111
-31.3574
-31.0801
-30.878
-30.7436
-30.656
-30.5967
-30.5519
-30.5196
-30.5001
-30.49
-30.4866
-30.4881
-30.4924
-30.4973
-30.5018
-30.5057
-30.509
-30.5117
-30.514
-30.5162
-30.5182
-30.5199
-30.5212
-30.5221
-30.5227
-30.5228
-30.5227
-30.5222
-30.5214
-30.5203
-30.519
-30.5171
-30.5147
-30.5115
-30.5075
-30.5024
-30.4966
-30.4903
-30.4841
-30.478
-30.4721
-30.467
-30.4616
-30.4554
-30.4515
-30.4544
-30.4701
-30.5024
-30.5574
-30.6432
-30.7579
-30.9046
-31.1108
-31.4108
-31.8347
-32.3653
-32.9571
-33.5405
-33.9608
-34.1669
-32.9164
-32.6554
-32.1878
-31.6918
-31.2945
-30.9944
-30.7831
-30.6524
-30.5726
-30.5208
-30.4796
-30.4497
-30.4341
-30.4277
-30.4277
-30.4329
-30.4402
-30.4477
-30.4539
-30.4591
-30.4635
-30.4668
-30.4696
-30.4724
-30.4749
-30.4771
-30.4786
-30.4797
-30.4803
-30.4805
-30.4803
-30.4798
-30.4788
-30.4775
-30.476
-30.4739
-30.471
-30.4673
-30.4625
-30.4563
-30.4491
-30.4413
-30.4334
-30.4252
-30.4171
-30.4097
-30.4011
-30.3897
-30.3791
-30.3746
-30.3834
-30.4086
-30.4569
-30.5401
-30.6509
-30.7866
-30.9843
-31.2891
-31.7502
-32.3454
-33.0237
-33.7208
-34.2062
-34.4331
-33.1444
-32.831
-32.2507
-31.6579
-31.2188
-30.8981
-30.6793
-30.5564
-30.4874
-30.4454
-30.4076
-30.3796
-30.3684
-30.366
-30.3695
-30.3785
-30.3891
-30.3993
-30.4071
-30.4134
-30.4188
-30.4227
-30.426
-30.4293
-30.4324
-30.4349
-30.4367
-30.4379
-30.4387
-30.4389
-30.4387
-30.438
-30.4369
-30.4355
-30.4338
-30.4315
-30.4281
-30.4239
-30.4185
-30.4112
-30.4026
-30.3931
-30.3836
-30.3736
-30.3631
-30.3539
-30.3425
-30.3255
-30.3078
-30.295
-30.2968
-30.3142
-30.3544
-30.4362
-30.5437
-30.6633
-30.8462
-31.1482
-31.6484
-32.313
-33.084
-33.9245
-34.4793
-34.7217
-33.4052
-33.0353
-32.3122
-31.6036
-31.1294
-30.7912
-30.5658
-30.4562
-30.4012
-30.3717
-30.3363
-30.3092
-30.3033
-30.3051
-30.312
-30.3251
-30.3393
-30.3522
-30.3614
-30.3688
-30.3753
-30.3796
-30.3832
-30.3871
-30.3907
-30.3937
-30.3957
-30.397
-30.3979
-30.3982
-30.3979
-30.3971
-30.3959
-30.3942
-30.3924
-30.39
-30.3862
-30.3816
-30.3756
-30.3672
-30.3572
-30.346
-30.3351
-30.3232
-30.3103
-30.2998
-30.2861
-30.2631
-30.2378
-30.2158
-30.2108
-30.2198
-30.2497
-30.3323
-30.4386
-30.5358
-30.6968
-30.9854
-31.5277
-32.2669
-33.1319
-34.1582
-34.7833
-35.0308
-33.7009
-33.2745
-32.3687
-31.5218
-31.026
-30.6739
-30.4419
-30.3527
-30.3147
-30.3012
-30.2662
-30.2383
-30.2391
-30.2453
-30.2552
-30.2731
-30.2908
-30.3068
-30.317
-30.3254
-30.333
-30.3376
-30.3413
-30.3458
-30.35
-30.3535
-30.3556
-30.357
-30.358
-30.3583
-30.3581
-30.3572
-30.3557
-30.3539
-30.3521
-30.3496
-30.3453
-30.3404
-30.3339
-30.3244
-30.313
-30.3
-30.2878
-30.2742
-30.2586
-30.2475
-30.2325
-30.2029
-30.1695
-30.1371
-30.1259
-30.126
-30.142
-30.2291
-30.3383
-30.405
-30.5371
-30.7971
-31.3868
-32.2063
-33.1571
-34.4317
-35.1213
-35.3574
-34.0327
-33.5581
-32.4158
-31.4027
-30.9098
-30.5472
-30.3063
-30.2469
-30.2284
-30.2353
-30.1975
-30.1664
-30.1762
-30.1869
-30.1992
-30.2225
-30.2438
-30.2631
-30.274
-30.283
-30.2921
-30.2966
-30.3003
-30.3056
-30.3103
-30.3143
-30.3165
-30.318
-30.3192
-30.3195
-30.3192
-30.3182
-30.3166
-30.3145
-30.3127
-30.3103
-30.3055
-30.3003
-30.2936
-30.2828
-30.27
-30.255
-30.242
-30.2267
-30.2078
-30.1971
-30.182
-30.1449
-30.1033
-30.0585
-30.0426
-30.0336
-30.0301
-30.1272
-30.2465
-30.2716
-30.3689
-30.5785
-31.225
-32.1327
-33.1441
-34.7601
-35.4967
-35.697
-34.4
-33.899
-32.4471
-31.2336
-30.7844
-30.4125
-30.1568
-30.1407
-30.1424
-30.1763
-30.1304
-30.0926
-30.1152
-30.1301
-30.1437
-30.1735
-30.1983
-30.2214
-30.2323
-30.2418
-30.2527
-30.2568
-30.2601
-30.2665
-30.2717
-30.2763
-30.2785
-30.28
-30.2813
-30.2816
-30.2814
-30.2802
-30.2785
-30.276
-30.2744
-30.2722
-30.2667
-30.2613
-30.2548
-30.2425
-30.2284
-30.2111
-30.1977
-30.1808
-30.1575
-30.1485
-30.1353
-30.0891
-30.0395
-29.9795
-29.9614
-29.9438
-29.9117
-30.0265
-30.1678
-30.1358
-30.1955
-30.3229
-31.0422
-32.0507
-33.0681
-35.1662
-35.912
-36.043
-34.7997
-34.316
-32.4541
-30.998
-30.6563
-30.2718
-29.9902
-30.0367
-30.0565
-30.1267
-30.0647
-30.0155
-30.0568
-30.0751
-30.0883
-30.1264
-30.1543
-30.182
-30.1918
-30.2015
-30.2149
-30.2181
-30.2207
-30.2284
-30.2341
-30.2395
-30.2414
-30.2429
-30.2445
-30.2447
-30.2446
-30.2432
-30.2413
-30.2383
-30.2371
-30.2354
-30.2288
-30.2234
-30.2175
-30.2034
-30.1882
-30.1679
-30.1548
-30.1369
-30.1074
-30.1018
-30.093
-30.0353
-29.9786
-29.8991
-29.8829
-29.8585
-29.7837
-29.9271
-30.1085
-29.9965
-30.0223
-30.021
-30.839
-31.9708
-32.8919
-35.6839
-36.3684
-36.3866
-35.2248
-34.8355
-32.425
-30.6744
-30.5367
-30.1275
-29.8013
-29.9388
-29.9691
-30.0902
-30
-29.9331
-30.0022
-30.0221
-30.0324
-30.0815
-30.1114
-30.1452
-30.1523
-30.1618
-30.179
-30.1803
-30.1818
-30.1914
-30.1975
-30.2038
-30.2053
-30.2067
-30.2086
-30.2088
-30.2087
-30.2072
-30.2052
-30.2014
-30.2007
-30.1998
-30.1917
-30.1865
-30.1817
-30.1653
-30.1495
-30.1252
-30.1135
-30.0951
-30.0565
-30.0567
-30.0561
-29.983
-29.9217
-29.816
-29.8077
-29.7806
-29.6413
-29.8279
-30.0768
-29.8506
-29.8582
-29.6597
-30.6164
-31.912
-32.5594
-36.3636
-36.8636
-36.7169
-35.6632
-35.4942
-32.3441
-30.235
-30.4433
-29.9821
-29.5828
-29.8531
-29.8777
-30.0716
-29.9356
-29.8426
-29.9533
-29.9715
-29.9751
-30.0393
-30.0693
-30.1114
-30.1137
-30.1226
-30.1451
-30.1435
-30.1433
-30.1555
-30.1617
-30.1693
-30.17
-30.1714
-30.1738
-30.1737
-30.1738
-30.172
-30.17
-30.1652
-30.1652
-30.1657
-30.1553
-30.1504
-30.1478
-30.1281
-30.1124
-30.0827
-30.0739
-30.056
-30.0041
-30.0128
-30.0259
-29.9314
-29.8701
-29.7279
-29.7366
-29.7143
-29.4783
-29.7275
-30.084
-29.6918
-29.7168
-29.2209
-30.3756
-31.9069
-31.9885
-37.2782
-37.3896
-37.0212
-36.0956
-36.3427
-32.1902
-29.6441
-30.4022
-29.8379
-29.3241
-29.7883
-29.7773
-30.0774
-29.8702
-29.7404
-29.9125
-29.9236
-29.9152
-30.0008
-30.0276
-30.0813
-30.0756
-30.0835
-30.1139
-30.1076
-30.1049
-30.1211
-30.1267
-30.1363
-30.1356
-30.1369
-30.14
-30.1395
-30.14
-30.1377
-30.136
-30.1296
-30.1306
-30.1332
-30.1195
-30.1152
-30.116
-30.0917
-30.0773
-30.0399
-30.036
-30.0205
-29.9488
-29.9699
-30.0042
-29.879
-29.8259
-29.632
-29.6703
-29.6659
-29.2862
-29.623
-30.1451
-29.5089
-29.619
-28.6794
-30.1172
-32.0072
-31.0609
-38.5323
-37.9284
-37.2853
-36.4932
-37.4495
-31.9352
-28.8569
-30.451
-29.6961
-29.0106
-29.7577
-29.6601
-30.1165
-29.8021
-29.622
-29.8838
-29.8786
-29.8512
-29.9674
-29.9855
-30.0561
-30.0378
-30.0441
-30.0861
-30.0725
-30.0664
-30.0884
-30.0925
-30.1049
-30.1021
-30.1033
-30.1076
-30.1063
-30.1073
-30.1045
-30.1033
-30.0946
-30.097
-30.1029
-30.0842
-30.0806
-30.0868
-30.0557
-30.0448
-29.9962
-30
-29.9898
-29.8893
-29.9276
-29.9938
-29.8236
-29.7927
-29.5241
-29.6092
-29.6443
-29.0539
-29.5102
-30.2809
-29.2837
-29.5952
-28.0016
-29.8393
-32.2922
-29.6099
-40.2729
-38.4474
-37.4949
-36.8156
-38.9054
-31.5417
-27.8167
-30.6412
-29.556
-28.6225
-29.7798
-29.5138
-30.201
-29.7284
-29.4812
-29.8725
-29.8366
-29.7808
-29.9413
-29.9417
-30.0372
-29.9999
-30.004
-30.0626
-30.0382
-30.0277
-30.058
-30.0591
-30.0756
-30.0696
-30.0707
-30.0766
-30.0742
-30.0761
-30.0724
-30.0722
-30.0602
-30.0644
-30.0751
-30.0492
-30.0468
-30.0609
-30.0198
-30.0158
-29.951
-29.9663
-29.9658
-29.8235
-29.8851
-29.998
-29.7619
-29.7752
-29.399
-29.5536
-29.6615
-28.7671
-29.3828
-30.5189
-28.988
-29.6886
-27.1425
-29.5357
-32.8787
-27.4045
-42.7032
-38.8916
-37.6369
-37.0075
-40.8285
-30.9611
-26.4536
-31.0417
-29.4132
-28.1335
-29.8802
-29.32
-30.3465
-29.6448
-29.3103
-29.8851
-29.7971
-29.7008
-29.9247
-29.894
-30.0261
-29.9608
-29.9621
-30.0443
-30.0042
-29.9878
-30.0301
-30.0258
-30.0483
-30.0376
-30.0388
-30.047
-30.0427
-30.0461
-30.041
-30.0427
-30.0259
-30.0323
-30.05
-30.0139
-30.013
-30.0387
-29.9828
-29.991
-29.9027
-29.9343
-29.9502
-29.7487
-29.8412
-30.0212
-29.6883
-29.7797
-29.249
-29.5025
-29.7337
-28.4074
-29.2314
-30.8958
-28.5799
-29.9592
-26.043
-29.1918
-33.9326
-24.1307
-46.0988
-39.1745
-37.702
)
;

boundaryField
{
    left
    {
        type            calculated;
        value           nonuniform List<scalar> 
32
(
-31.7375
-31.7388
-31.7417
-31.7465
-31.7537
-31.7642
-31.7787
-31.798
-31.8233
-31.8557
-31.8963
-31.9465
-32.0079
-32.0821
-32.171
-32.2766
-32.4014
-32.5477
-32.7185
-32.9164
-33.1444
-33.4052
-33.7009
-34.0327
-34.4
-34.7997
-35.2248
-35.6632
-36.0956
-36.4932
-36.8156
-37.0075
)
;
    }
    right
    {
        type            calculated;
        value           nonuniform List<scalar> 
32
(
-32.3442
-32.3519
-32.367
-32.3894
-32.4195
-32.4576
-32.5046
-32.5614
-32.6288
-32.7081
-32.8004
-32.907
-33.0293
-33.1686
-33.3265
-33.5041
-33.7027
-33.9234
-34.1669
-34.4331
-34.7217
-35.0308
-35.3574
-35.697
-36.043
-36.3866
-36.7169
-37.0212
-37.2853
-37.4949
-37.6369
-37.702
)
;
    }
    interface
    {
        type            calculated;
        value           nonuniform List<scalar> 
64
(
-37.0628
-41.9235
-30.6171
-25.6816
-31.3043
-29.3402
-27.86
-29.9536
-29.2086
-30.4367
-29.5999
-29.2161
-29.8983
-29.7778
-29.6579
-29.9191
-29.8689
-30.0226
-29.9408
-29.9405
-30.0366
-29.9871
-29.9675
-30.0167
-30.0091
-30.0352
-30.0217
-30.023
-30.0324
-30.027
-30.0313
-30.0254
-30.0283
-30.0087
-30.0163
-30.0382
-29.9961
-29.996
-30.0286
-29.9639
-29.9798
-29.8776
-29.9188
-29.9448
-29.7086
-29.8186
-30.0381
-29.6478
-29.7884
-29.1666
-29.4779
-29.7858
-28.2068
-29.1483
-31.1241
-28.3416
-30.1474
-25.4248
-29.0073
-34.6007
-22.1817
-48.0776
-39.2625
-37.7144
)
;
    }
    bottom
    {
        type            calculated;
        value           nonuniform List<scalar> 
64
(
-31.7372
-31.7285
-31.7118
-31.6878
-31.6578
-31.6232
-31.5856
-31.5463
-31.5067
-31.4678
-31.4304
-31.3952
-31.3626
-31.3328
-31.306
-31.2821
-31.261
-31.2425
-31.2264
-31.2127
-31.2009
-31.1909
-31.1826
-31.1757
-31.1701
-31.1657
-31.1623
-31.16
-31.1585
-31.1579
-31.1582
-31.1594
-31.1615
-31.1646
-31.1687
-31.174
-31.1807
-31.1888
-31.1986
-31.2103
-31.2242
-31.2407
-31.26
-31.2825
-31.3086
-31.3388
-31.3734
-31.4127
-31.4573
-31.5071
-31.5624
-31.6231
-31.6889
-31.7591
-31.8329
-31.9089
-31.9853
-32.0603
-32.1314
-32.196
-32.2516
-32.2958
-32.3265
-32.3422
)
;
    }
    defaultFaces
    {
        type            empty;
    }
}


// ************************************************************************* //
