/*--------------------------------*- C++ -*----------------------------------*\
| =========                 |                                                 |
| \\      /  F ield         | OpenFOAM: The Open Source CFD Toolbox           |
|  \\    /   O peration     | Version:  5.x                                   |
|   \\  /    A nd           | Web:      www.OpenFOAM.org                      |
|    \\/     M anipulation  |                                                 |
\*---------------------------------------------------------------------------*/
FoamFile
{
    version     2.0;
    format      ascii;
    class       volScalarField;
    location    "0.1";
    object      gradTy;
}
// * * * * * * * * * * * * * * * * * * * * * * * * * * * * * * * * * * * * * //

dimensions      [0 -1 0 1 0 0 0];

internalField   nonuniform List<scalar> 
2048
(
-31.131
-31.1311
-31.1313
-31.1316
-31.1321
-31.1327
-31.1334
-31.1343
-31.1354
-31.1368
-31.1384
-31.1403
-31.1426
-31.1453
-31.1486
-31.1524
-31.157
-31.1625
-31.169
-31.1768
-31.1859
-31.1968
-31.2096
-31.2246
-31.2423
-31.2629
-31.2871
-31.3151
-31.3476
-31.3851
-31.4281
-31.4772
-31.533
-31.5958
-31.6663
-31.7446
-31.8308
-31.925
-32.0267
-32.1353
-32.2498
-32.3689
-32.491
-32.6142
-32.7366
-32.856
-32.9706
-33.0788
-33.1793
-33.2712
-33.354
-33.4277
-33.4923
-33.5484
-33.5965
-33.6372
-33.6714
-33.6996
-33.7225
-33.7407
-33.7547
-33.7648
-33.7714
-33.7746
-31.124
-31.124
-31.1243
-31.1246
-31.125
-31.1256
-31.1263
-31.1272
-31.1283
-31.1296
-31.1312
-31.133
-31.1353
-31.1379
-31.1411
-31.1449
-31.1494
-31.1548
-31.1612
-31.1688
-31.1777
-31.1884
-31.2009
-31.2157
-31.2331
-31.2534
-31.2772
-31.3049
-31.337
-31.3741
-31.4168
-31.4655
-31.521
-31.5836
-31.6539
-31.7322
-31.8186
-31.9132
-32.0155
-32.1251
-32.2408
-32.3614
-32.4851
-32.6101
-32.7342
-32.8552
-32.9713
-33.0806
-33.182
-33.2744
-33.3574
-33.4309
-33.4953
-33.5509
-33.5985
-33.6387
-33.6724
-33.7001
-33.7226
-33.7404
-33.7541
-33.764
-33.7704
-33.7736
-31.1106
-31.1106
-31.1109
-31.1112
-31.1116
-31.1122
-31.1129
-31.1137
-31.1148
-31.116
-31.1175
-31.1193
-31.1214
-31.124
-31.127
-31.1307
-31.135
-31.1402
-31.1463
-31.1536
-31.1622
-31.1725
-31.1846
-31.1989
-31.2157
-31.2355
-31.2587
-31.2857
-31.3171
-31.3534
-31.3953
-31.4434
-31.4982
-31.5604
-31.6304
-31.7086
-31.7954
-31.8907
-31.9943
-32.1056
-32.2236
-32.347
-32.4739
-32.6023
-32.7297
-32.854
-32.9728
-33.0844
-33.1873
-33.2805
-33.3639
-33.4372
-33.501
-33.5558
-33.6024
-33.6416
-33.6742
-33.701
-33.7226
-33.7398
-33.7528
-33.7623
-33.7684
-33.7715
-31.0918
-31.0918
-31.0921
-31.0924
-31.0928
-31.0933
-31.0939
-31.0947
-31.0957
-31.0969
-31.0983
-31.1
-31.102
-31.1044
-31.1072
-31.1106
-31.1147
-31.1196
-31.1254
-31.1323
-31.1404
-31.1502
-31.1617
-31.1753
-31.1914
-31.2103
-31.2325
-31.2586
-31.2889
-31.3242
-31.3651
-31.4121
-31.466
-31.5275
-31.597
-31.6752
-31.7623
-31.8586
-31.9639
-32.0776
-32.1989
-32.3263
-32.4579
-32.5912
-32.7237
-32.8526
-32.9755
-33.0902
-33.1953
-33.2898
-33.3734
-33.4464
-33.5093
-33.5628
-33.608
-33.6457
-33.6768
-33.7022
-33.7227
-33.7388
-33.751
-33.7599
-33.7656
-33.7684
-31.0683
-31.0684
-31.0686
-31.0688
-31.0692
-31.0697
-31.0703
-31.071
-31.0719
-31.073
-31.0743
-31.0758
-31.0777
-31.0799
-31.0825
-31.0857
-31.0894
-31.0939
-31.0993
-31.1057
-31.1133
-31.1223
-31.1331
-31.1459
-31.161
-31.1788
-31.1999
-31.2247
-31.2538
-31.2877
-31.3272
-31.3729
-31.4256
-31.486
-31.5549
-31.6329
-31.7204
-31.8178
-31.9251
-32.0419
-32.1674
-32.2999
-32.4375
-32.5774
-32.7165
-32.8516
-32.9797
-33.0985
-33.2063
-33.3023
-33.3862
-33.4585
-33.52
-33.5718
-33.615
-33.6507
-33.6799
-33.7036
-33.7225
-33.7373
-33.7486
-33.7566
-33.7618
-33.7644
-31.0409
-31.0409
-31.0411
-31.0413
-31.0416
-31.0421
-31.0426
-31.0433
-31.0441
-31.0451
-31.0462
-31.0476
-31.0493
-31.0513
-31.0536
-31.0565
-31.0599
-31.0639
-31.0688
-31.0746
-31.0815
-31.0898
-31.0997
-31.1115
-31.1255
-31.1421
-31.1618
-31.1851
-31.2126
-31.2449
-31.2827
-31.3268
-31.378
-31.4371
-31.5051
-31.5826
-31.6704
-31.7689
-31.8785
-31.9989
-32.1293
-32.2682
-32.4132
-32.5612
-32.7085
-32.8513
-32.986
-33.1098
-33.2208
-33.3182
-33.4022
-33.4734
-33.5331
-33.5826
-33.6234
-33.6566
-33.6835
-33.705
-33.7221
-33.7354
-33.7454
-33.7526
-33.7572
-33.7595
-31.0101
-31.0101
-31.0102
-31.0104
-31.0107
-31.0111
-31.0115
-31.0121
-31.0129
-31.0137
-31.0147
-31.016
-31.0174
-31.0191
-31.0212
-31.0237
-31.0267
-31.0303
-31.0346
-31.0398
-31.046
-31.0534
-31.0623
-31.073
-31.0857
-31.101
-31.1191
-31.1407
-31.1664
-31.1968
-31.2326
-31.2748
-31.3242
-31.3817
-31.4484
-31.5252
-31.613
-31.7127
-31.8246
-31.9489
-32.085
-32.2313
-32.3851
-32.543
-32.7003
-32.8524
-32.9949
-33.1244
-33.239
-33.3379
-33.4216
-33.4912
-33.5485
-33.5951
-33.6328
-33.6631
-33.6872
-33.7064
-33.7213
-33.7329
-33.7415
-33.7477
-33.7516
-33.7536
-30.9765
-30.9764
-30.9766
-30.9767
-30.9769
-30.9773
-30.9776
-30.9782
-30.9788
-30.9795
-30.9804
-30.9814
-30.9826
-30.9841
-30.9859
-30.988
-30.9906
-30.9937
-30.9974
-31.0019
-31.0073
-31.0138
-31.0217
-31.0311
-31.0425
-31.0562
-31.0726
-31.0924
-31.116
-31.1442
-31.1779
-31.2178
-31.265
-31.3205
-31.3856
-31.4614
-31.549
-31.6495
-31.7638
-31.8923
-32.0345
-32.1892
-32.3534
-32.5229
-32.6922
-32.8554
-33.0071
-33.1432
-33.2615
-33.3617
-33.4445
-33.5119
-33.5661
-33.6092
-33.6433
-33.6701
-33.6911
-33.7075
-33.7201
-33.7297
-33.7369
-33.7419
-33.7451
-33.7467
-30.9406
-30.9405
-30.9406
-30.9407
-30.9408
-30.9411
-30.9414
-30.9418
-30.9423
-30.943
-30.9437
-30.9445
-30.9455
-30.9467
-30.9482
-30.9499
-30.9521
-30.9546
-30.9577
-30.9615
-30.9661
-30.9716
-30.9784
-30.9865
-30.9964
-31.0084
-31.023
-31.0408
-31.0622
-31.088
-31.1192
-31.1565
-31.2012
-31.2544
-31.3176
-31.3919
-31.4789
-31.58
-31.6964
-31.829
-31.978
-32.142
-32.3181
-32.5012
-32.6846
-32.8609
-33.0232
-33.1667
-33.2889
-33.3899
-33.4712
-33.5355
-33.5857
-33.6245
-33.6544
-33.6773
-33.6948
-33.7082
-33.7183
-33.7258
-33.7314
-33.7352
-33.7377
-33.7389
-30.9029
-30.9028
-30.9028
-30.9029
-30.9029
-30.9031
-30.9033
-30.9037
-30.9041
-30.9045
-30.9051
-30.9057
-30.9065
-30.9075
-30.9086
-30.91
-30.9116
-30.9137
-30.9162
-30.9192
-30.9229
-30.9274
-30.933
-30.9398
-30.9481
-30.9584
-30.9711
-30.9866
-31.0056
-31.0289
-31.0573
-31.0918
-31.1336
-31.1842
-31.2449
-31.3174
-31.4033
-31.5044
-31.6226
-31.7593
-31.9152
-32.0896
-32.2792
-32.4781
-32.678
-32.8696
-33.0442
-33.1957
-33.3217
-33.4228
-33.5017
-33.5619
-33.6072
-33.641
-33.6661
-33.6846
-33.6983
-33.7084
-33.7158
-33.7212
-33.725
-33.7277
-33.7293
-33.7302
-30.8637
-30.8637
-30.8636
-30.8636
-30.8636
-30.8637
-30.8638
-30.864
-30.8643
-30.8647
-30.8651
-30.8655
-30.8661
-30.8667
-30.8676
-30.8685
-30.8697
-30.8712
-30.8731
-30.8754
-30.8782
-30.8818
-30.8861
-30.8915
-30.8982
-30.9067
-30.9173
-30.9305
-30.947
-30.9676
-30.9929
-31.0243
-31.063
-31.1104
-31.1683
-31.2384
-31.3227
-31.4233
-31.5427
-31.6831
-31.8461
-32.0315
-32.2363
-32.4534
-32.6727
-32.8823
-33.0708
-33.2311
-33.3605
-33.4608
-33.536
-33.591
-33.6304
-33.6584
-33.6781
-33.6918
-33.7014
-33.708
-33.7126
-33.7157
-33.7178
-33.7193
-33.7201
-33.7206
-30.8235
-30.8235
-30.8233
-30.8234
-30.8232
-30.8232
-30.8233
-30.8234
-30.8235
-30.8237
-30.824
-30.8243
-30.8246
-30.825
-30.8255
-30.8261
-30.8268
-30.8278
-30.829
-30.8306
-30.8325
-30.835
-30.8381
-30.8421
-30.8472
-30.8538
-30.8622
-30.8731
-30.887
-30.9046
-30.9268
-30.9547
-30.9898
-31.0338
-31.0885
-31.1557
-31.2377
-31.337
-31.4569
-31.6004
-31.7703
-31.9675
-32.1891
-32.4273
-32.6693
-32.8997
-33.1042
-33.2737
-33.4059
-33.5041
-33.5741
-33.6225
-33.6551
-33.6764
-33.6901
-33.6987
-33.7039
-33.7069
-33.7086
-33.7094
-33.7098
-33.71
-33.71
-33.7101
-30.7826
-30.7826
-30.7823
-30.7823
-30.782
-30.7821
-30.782
-30.782
-30.782
-30.7821
-30.7822
-30.7823
-30.7824
-30.7825
-30.7827
-30.7829
-30.7832
-30.7837
-30.7843
-30.7851
-30.7862
-30.7876
-30.7896
-30.7921
-30.7955
-30.8001
-30.8064
-30.8148
-30.8259
-30.8405
-30.8593
-30.8836
-30.9149
-30.955
-31.006
-31.0698
-31.1489
-31.2462
-31.3655
-31.5112
-31.6875
-31.897
-32.1373
-32.3994
-32.6679
-32.9229
-33.1455
-33.3245
-33.4585
-33.5529
-33.616
-33.6563
-33.6808
-33.6947
-33.7019
-33.705
-33.7057
-33.705
-33.7037
-33.7023
-33.701
-33.6999
-33.6991
-33.6988
-30.7412
-30.7412
-30.7408
-30.7409
-30.7405
-30.7405
-30.7403
-30.7401
-30.7401
-30.74
-30.74
-30.7399
-30.7398
-30.7397
-30.7396
-30.7394
-30.7393
-30.7392
-30.7392
-30.7393
-30.7396
-30.74
-30.7407
-30.7418
-30.7435
-30.7462
-30.7502
-30.7561
-30.7645
-30.7759
-30.7912
-30.8115
-30.8386
-30.8745
-30.9215
-30.9814
-31.0568
-31.1512
-31.2689
-31.4154
-31.5973
-31.8192
-32.08
-32.3696
-32.669
-32.9528
-33.196
-33.3846
-33.5187
-33.6071
-33.6614
-33.6919
-33.7072
-33.713
-33.7133
-33.7106
-33.7066
-33.7022
-33.698
-33.6943
-33.6913
-33.689
-33.6875
-33.6868
-30.6996
-30.6997
-30.6992
-30.6993
-30.6988
-30.6987
-30.6984
-30.6982
-30.698
-30.6979
-30.6977
-30.6974
-30.6972
-30.6968
-30.6964
-30.6959
-30.6953
-30.6947
-30.6941
-30.6935
-30.6929
-30.6924
-30.6919
-30.6916
-30.6915
-30.6922
-30.694
-30.6974
-30.703
-30.7112
-30.7227
-30.7389
-30.7614
-30.7929
-30.8354
-30.8911
-30.9622
-31.0526
-31.1673
-31.3132
-31.4993
-31.7333
-32.0164
-32.3373
-32.6728
-32.9908
-33.2572
-33.455
-33.5871
-33.6669
-33.7098
-33.729
-33.7339
-33.7309
-33.7239
-33.7153
-33.7066
-33.6986
-33.6915
-33.6855
-33.6809
-33.6774
-33.6752
-33.6741
-30.6579
-30.6582
-30.6575
-30.6577
-30.657
-30.657
-30.6566
-30.6563
-30.656
-30.6557
-30.6554
-30.655
-30.6546
-30.654
-30.6533
-30.6524
-30.6514
-30.6503
-30.6491
-30.6479
-30.6465
-30.6451
-30.6435
-30.6417
-30.6399
-30.6386
-30.6382
-30.6391
-30.6417
-30.6467
-30.6545
-30.6662
-30.6839
-30.7105
-30.7484
-30.7994
-30.8656
-30.9511
-31.0614
-31.2045
-31.3929
-31.6383
-31.9454
-32.3018
-32.6796
-33.0382
-33.3309
-33.537
-33.6639
-33.7318
-33.7609
-33.7669
-33.7605
-33.748
-33.7335
-33.719
-33.7056
-33.6939
-33.684
-33.676
-33.6697
-33.6652
-33.6622
-33.6608
-30.6164
-30.6168
-30.6161
-30.6162
-30.6155
-30.6154
-30.615
-30.6146
-30.6142
-30.6138
-30.6134
-30.6129
-30.6122
-30.6114
-30.6104
-30.6092
-30.6078
-30.6063
-30.6045
-30.6027
-30.6006
-30.5982
-30.5955
-30.5923
-30.5888
-30.5855
-30.5828
-30.5812
-30.581
-30.5829
-30.5868
-30.5938
-30.6062
-30.6276
-30.6609
-30.707
-30.7676
-30.8473
-30.9516
-31.0895
-31.2775
-31.5331
-31.8658
-32.2622
-32.6892
-33.0969
-33.4191
-33.6315
-33.7493
-33.8015
-33.814
-33.8051
-33.7864
-33.7641
-33.7419
-33.7215
-33.7035
-33.6883
-33.6757
-33.6656
-33.6579
-33.6523
-33.6487
-33.6469
-30.5753
-30.5757
-30.5749
-30.575
-30.5742
-30.5741
-30.5736
-30.5731
-30.5727
-30.5722
-30.5717
-30.571
-30.5702
-30.5692
-30.568
-30.5665
-30.5647
-30.5626
-30.5604
-30.5579
-30.5551
-30.552
-30.5482
-30.5436
-30.5384
-30.5331
-30.5282
-30.524
-30.5211
-30.5199
-30.52
-30.5219
-30.5287
-30.5446
-30.5732
-30.6144
-30.6687
-30.7417
-30.8387
-30.9684
-31.1526
-31.4161
-31.776
-32.2173
-32.7013
-33.169
-33.5244
-33.7399
-33.8432
-33.8752
-33.8682
-33.8429
-33.8111
-33.7788
-33.7489
-33.7226
-33.7002
-33.6816
-33.6665
-33.6545
-33.6454
-33.6388
-33.6345
-33.6324
-30.5345
-30.5349
-30.5341
-30.5341
-30.5333
-30.5331
-30.5326
-30.5321
-30.5315
-30.5309
-30.5303
-30.5296
-30.5286
-30.5275
-30.526
-30.5241
-30.522
-30.5195
-30.5168
-30.5137
-30.5103
-30.5064
-30.5016
-30.4957
-30.4887
-30.4814
-30.4743
-30.4677
-30.462
-30.4579
-30.4543
-30.4509
-30.4516
-30.4616
-30.4857
-30.5221
-30.5694
-30.6352
-30.7235
-30.8416
-31.0178
-31.2857
-31.6745
-32.1658
-32.715
-33.2573
-33.6495
-33.863
-33.9453
-33.9522
-33.9227
-33.8796
-33.8341
-33.7917
-33.7542
-33.7223
-33.6957
-33.6739
-33.6564
-33.6426
-33.6323
-33.6247
-33.6199
-33.6174
-30.4943
-30.4945
-30.4938
-30.4936
-30.4928
-30.4925
-30.492
-30.4914
-30.4908
-30.4901
-30.4894
-30.4886
-30.4875
-30.4862
-30.4845
-30.4823
-30.4798
-30.4769
-30.4737
-30.4701
-30.466
-30.4615
-30.4559
-30.4486
-30.4399
-30.4305
-30.4213
-30.4123
-30.4038
-30.3972
-30.3901
-30.3809
-30.3749
-30.3784
-30.3986
-30.4307
-30.4701
-30.5283
-30.6073
-30.7095
-30.8726
-31.1401
-31.5596
-32.1062
-32.7285
-33.3657
-33.7979
-34.0018
-34.0547
-34.0311
-33.9765
-33.9144
-33.855
-33.8025
-33.7577
-33.7204
-33.6898
-33.6651
-33.6455
-33.6301
-33.6186
-33.6101
-33.6047
-33.602
-30.4547
-30.4546
-30.454
-30.4535
-30.4527
-30.4524
-30.4519
-30.4512
-30.4505
-30.4498
-30.449
-30.4481
-30.4469
-30.4454
-30.4435
-30.4411
-30.4382
-30.4348
-30.4312
-30.4271
-30.4225
-30.4175
-30.4111
-30.4024
-30.3919
-30.3805
-30.3693
-30.3579
-30.3466
-30.3379
-30.3277
-30.3122
-30.2987
-30.2952
-30.3123
-30.3409
-30.371
-30.4218
-30.4914
-30.5729
-30.7169
-30.977
-31.4296
-32.0369
-32.7385
-33.4996
-33.9736
-34.1567
-34.1704
-34.1107
-34.0286
-33.9466
-33.8734
-33.811
-33.7593
-33.717
-33.6827
-33.6553
-33.6337
-33.6168
-33.6043
-33.595
-33.5891
-33.5862
-30.4159
-30.4152
-30.4148
-30.4139
-30.4132
-30.4127
-30.4123
-30.4116
-30.4108
-30.41
-30.4092
-30.4082
-30.4069
-30.4053
-30.4032
-30.4005
-30.3972
-30.3934
-30.3895
-30.3849
-30.3796
-30.3743
-30.3674
-30.3573
-30.345
-30.3313
-30.3183
-30.3046
-30.2903
-30.2801
-30.2675
-30.245
-30.2233
-30.2115
-30.227
-30.2536
-30.2724
-30.3162
-30.3778
-30.4325
-30.5511
-30.7936
-31.2832
-31.9569
-32.7394
-33.6664
-34.1812
-34.3277
-34.2908
-34.1895
-34.0778
-33.9758
-33.8889
-33.8172
-33.7589
-33.712
-33.6744
-33.6446
-33.6212
-33.603
-33.5895
-33.5796
-33.5732
-33.5702
-30.3778
-30.3765
-30.3763
-30.3749
-30.3743
-30.3737
-30.3733
-30.3726
-30.3717
-30.3708
-30.37
-30.369
-30.3675
-30.3658
-30.3637
-30.3606
-30.357
-30.3528
-30.3485
-30.3435
-30.3376
-30.3321
-30.3249
-30.3133
-30.2992
-30.2832
-30.2686
-30.2526
-30.2348
-30.2241
-30.2101
-30.1796
-30.1489
-30.1269
-30.143
-30.1701
-30.1738
-30.212
-30.2691
-30.2894
-30.3759
-30.5862
-31.1191
-31.866
-32.7216
-33.8772
-34.4256
-34.514
-34.4136
-34.2657
-34.1232
-34.0012
-33.9013
-33.8209
-33.7567
-33.7055
-33.665
-33.633
-33.608
-33.5886
-33.5743
-33.5638
-33.5571
-33.5539
-30.3407
-30.3387
-30.3386
-30.3368
-30.3363
-30.3356
-30.3352
-30.3344
-30.3335
-30.3325
-30.3317
-30.3307
-30.3291
-30.3273
-30.3251
-30.3217
-30.3177
-30.313
-30.3086
-30.3032
-30.2965
-30.2911
-30.2839
-30.2706
-30.2547
-30.2361
-30.2203
-30.2021
-30.18
-30.17
-30.1561
-30.1161
-30.0758
-30.0408
-30.0604
-30.0921
-30.0748
-30.1094
-30.1685
-30.144
-30.1933
-30.3501
-30.937
-31.766
-32.67
-34.1481
-34.712
-34.7136
-34.5362
-34.3376
-34.1639
-34.0227
-33.9106
-33.8222
-33.7526
-33.6977
-33.6545
-33.6207
-33.5943
-33.5739
-33.5588
-33.5479
-33.5408
-33.5376
-30.3044
-30.302
-30.3018
-30.2997
-30.2993
-30.2984
-30.298
-30.2972
-30.2963
-30.2951
-30.2944
-30.2935
-30.2917
-30.2898
-30.2877
-30.2839
-30.2796
-30.2743
-30.2697
-30.264
-30.2563
-30.2514
-30.2446
-30.2294
-30.2118
-30.19
-30.1737
-30.1535
-30.1257
-30.118
-30.1066
-30.0547
-30.0047
-29.952
-29.9796
-30.022
-29.974
-30.0081
-30.0804
-29.9966
-30.0067
-30.0785
-30.7368
-31.6618
-32.5604
-34.5028
-35.0449
-34.9234
-34.6556
-34.4036
-34.1992
-34.0399
-33.9167
-33.8212
-33.7468
-33.6887
-33.6433
-33.6078
-33.5802
-33.559
-33.5432
-33.532
-33.5246
-33.5214
-30.269
-30.2664
-30.2658
-30.2635
-30.2633
-30.2624
-30.262
-30.2612
-30.2601
-30.2588
-30.2582
-30.2575
-30.2553
-30.2535
-30.2515
-30.2473
-30.2427
-30.2366
-30.2322
-30.2263
-30.2171
-30.213
-30.2074
-30.1896
-30.1706
-30.1449
-30.129
-30.1073
-30.0713
-30.068
-30.0626
-29.9953
-29.9363
-29.8588
-29.9003
-29.963
-29.8692
-29.9071
-30.0107
-29.8462
-29.8216
-29.762
-30.5192
-31.5642
-32.3556
-34.9762
-35.4272
-35.1382
-34.7682
-34.4619
-34.2285
-34.0527
-33.9196
-33.8179
-33.7395
-33.6787
-33.6313
-33.5944
-33.5659
-33.5439
-33.5276
-33.5161
-33.5085
-33.5052
-30.2344
-30.2322
-30.2307
-30.2284
-30.2284
-30.2274
-30.2272
-30.2262
-30.2251
-30.2236
-30.2231
-30.2227
-30.2201
-30.2183
-30.2166
-30.2118
-30.207
-30.2
-30.196
-30.19
-30.1787
-30.176
-30.1723
-30.1512
-30.1312
-30.1003
-30.0862
-30.0638
-30.0158
-30.0199
-30.0254
-29.9373
-29.872
-29.7586
-29.8221
-29.9198
-29.757
-29.8043
-29.967
-29.6896
-29.6471
-29.3871
-30.2854
-31.4924
-31.9996
-35.6191
-35.8581
-35.3508
-34.8703
-34.5112
-34.2512
-34.0609
-33.9194
-33.8125
-33.7307
-33.6676
-33.6187
-33.5807
-33.5513
-33.5288
-33.512
-33.5004
-33.4926
-33.489
-30.2007
-30.1993
-30.1963
-30.1942
-30.1944
-30.1934
-30.1933
-30.1922
-30.1911
-30.1892
-30.189
-30.189
-30.1857
-30.1841
-30.183
-30.1772
-30.1725
-30.1641
-30.1609
-30.1551
-30.1407
-30.1401
-30.1395
-30.1139
-30.0939
-30.0558
-30.0454
-30.0236
-29.958
-29.9732
-29.9967
-29.8794
-29.8138
-29.6481
-29.7439
-29.8988
-29.6323
-29.6962
-29.9599
-29.5206
-29.497
-28.9351
-30.0364
-31.479
-31.4097
-36.5047
-36.3304
-35.5522
-34.958
-34.5502
-34.2671
-34.0647
-33.9162
-33.8051
-33.7206
-33.6557
-33.6055
-33.5666
-33.5366
-33.5137
-33.4965
-33.4846
-33.4768
-33.4729
-30.1676
-30.1677
-30.1626
-30.1605
-30.1611
-30.1602
-30.1602
-30.1588
-30.1579
-30.1554
-30.1557
-30.1563
-30.152
-30.1505
-30.1503
-30.1434
-30.139
-30.1287
-30.1268
-30.1216
-30.1025
-30.105
-30.1093
-30.0769
-30.0588
-30.0104
-30.0064
-29.9877
-29.896
-29.9272
-29.9788
-29.8194
-29.7645
-29.5223
-29.6641
-29.9089
-29.488
-29.5775
-30.004
-29.3279
-29.3919
-28.3799
-29.7725
-31.576
-30.4671
-37.7377
-36.8271
-35.7312
-35.0279
-34.578
-34.276
-34.064
-33.9101
-33.7957
-33.7091
-33.6428
-33.5916
-33.552
-33.5215
-33.4984
-33.4808
-33.4689
-33.4611
-33.4568
-30.135
-30.1371
-30.1294
-30.1274
-30.1283
-30.1275
-30.1279
-30.1261
-30.1254
-30.1221
-30.1228
-30.1244
-30.1187
-30.1174
-30.1187
-30.11
-30.1066
-30.0934
-30.0935
-30.0896
-30.0637
-30.0705
-30.0819
-30.0398
-30.0263
-29.9631
-29.9692
-29.9573
-29.8275
-29.8809
-29.975
-29.7542
-29.7291
-29.3754
-29.58
-29.9623
-29.315
-29.4406
-30.1194
-29.0933
-29.3624
-27.6869
-29.4918
-31.8627
-29.0039
-39.4649
-37.3152
-35.8758
-35.0774
-34.5943
-34.278
-34.059
-33.9012
-33.7844
-33.6963
-33.629
-33.5772
-33.5371
-33.5062
-33.4829
-33.4652
-33.453
-33.4453
-33.4407
-30.1031
-30.1076
-30.0973
-30.0952
-30.0965
-30.0957
-30.0966
-30.0943
-30.094
-30.0896
-30.091
-30.094
-30.0862
-30.0853
-30.0887
-30.0773
-30.0757
-30.0584
-30.0616
-30.0599
-30.0242
-30.0367
-30.0587
-30.0021
-29.9979
-29.9132
-29.9343
-29.935
-29.7504
-29.8338
-29.9904
-29.6794
-29.7149
-29.2001
-29.4883
-30.0761
-29.1018
-29.2754
-30.334
-28.7893
-29.4528
-26.81
-29.1884
-32.4564
-26.7884
-41.8897
-37.7397
-35.9748
-35.1052
-34.5995
-34.2739
-34.0502
-33.8899
-33.7717
-33.6827
-33.6147
-33.5625
-33.5221
-33.4909
-33.4676
-33.4497
-33.4373
-33.4297
-33.4251
-30.0723
-30.0793
-30.0661
-30.0643
-30.0661
-30.0652
-30.0668
-30.0636
-30.0642
-30.058
-30.0604
-30.0654
-30.0546
-30.0542
-30.0608
-30.0454
-30.0469
-30.0236
-30.0312
-30.0334
-29.9836
-30.0039
-30.0407
-29.9631
-29.9752
-29.8594
-29.9019
-29.924
-29.6614
-29.7844
-30.0311
-29.5884
-29.732
-28.9872
-29.3836
-30.2726
-28.8332
-29.0677
-30.6851
-28.375
-29.7241
-25.6893
-28.8483
-33.5242
-23.5056
-45.2882
-38.0138
-36.0192
-35.1112
-34.5943
-34.2641
-34.0383
-33.8768
-33.7578
-33.6684
-33.6002
-33.5477
-33.5072
-33.4759
-33.4525
-33.4346
-33.422
-33.4145
-33.4101
)
;

boundaryField
{
    left
    {
        type            calculated;
        value           nonuniform List<scalar> 
32
(
-31.131
-31.124
-31.1106
-31.0918
-31.0683
-31.0409
-31.0101
-30.9765
-30.9406
-30.9029
-30.8637
-30.8235
-30.7826
-30.7412
-30.6996
-30.6579
-30.6164
-30.5753
-30.5345
-30.4943
-30.4547
-30.4159
-30.3778
-30.3407
-30.3044
-30.269
-30.2344
-30.2007
-30.1676
-30.135
-30.1031
-30.0723
)
;
    }
    right
    {
        type            calculated;
        value           nonuniform List<scalar> 
32
(
-33.7746
-33.7736
-33.7715
-33.7684
-33.7644
-33.7595
-33.7536
-33.7467
-33.7389
-33.7302
-33.7206
-33.7101
-33.6988
-33.6868
-33.6741
-33.6608
-33.6469
-33.6324
-33.6174
-33.602
-33.5862
-33.5702
-33.5539
-33.5376
-33.5214
-33.5052
-33.489
-33.4729
-33.4568
-33.4407
-33.4251
-33.4101
)
;
    }
    interface
    {
        type            calculated;
        value           nonuniform List<scalar> 
64
(
-30.0573
-30.0655
-30.0507
-30.049
-30.0512
-30.0502
-30.0523
-30.0485
-30.0496
-30.0424
-30.0453
-30.0516
-30.039
-30.0388
-30.0473
-30.0295
-30.0331
-30.0063
-30.0163
-30.0209
-29.9628
-29.9875
-30.0332
-29.943
-29.9654
-29.8313
-29.8863
-29.9217
-29.6135
-29.759
-30.0587
-29.5378
-29.7497
-28.87
-29.3272
-30.3945
-28.683
-28.9511
-30.9001
-28.1341
-29.9138
-25.0595
-28.6667
-34.201
-21.5521
-47.2704
-38.0999
-36.0269
-35.1089
-34.5892
-34.2579
-34.0316
-33.8698
-33.7507
-33.6611
-33.5928
-33.5403
-33.4997
-33.4683
-33.4451
-33.4271
-33.4144
-33.407
-33.4027
)
;
    }
    bottom
    {
        type            calculated;
        value           nonuniform List<scalar> 
64
(
-31.1328
-31.1329
-31.1332
-31.1335
-31.134
-31.1346
-31.1353
-31.1362
-31.1373
-31.1387
-31.1403
-31.1422
-31.1445
-31.1472
-31.1505
-31.1544
-31.159
-31.1646
-31.1711
-31.1789
-31.1881
-31.199
-31.2118
-31.2269
-31.2447
-31.2654
-31.2896
-31.3178
-31.3504
-31.3879
-31.4311
-31.4803
-31.5361
-31.599
-31.6695
-31.7478
-31.834
-31.928
-32.0296
-32.1379
-32.2521
-32.3709
-32.4926
-32.6153
-32.7372
-32.8562
-32.9704
-33.0783
-33.1786
-33.2704
-33.3532
-33.4268
-33.4916
-33.5477
-33.5959
-33.6368
-33.6711
-33.6994
-33.7225
-33.7408
-33.7548
-33.765
-33.7716
-33.7749
)
;
    }
    defaultFaces
    {
        type            empty;
    }
}


// ************************************************************************* //
