/*--------------------------------*- C++ -*----------------------------------*\
| =========                 |                                                 |
| \\      /  F ield         | OpenFOAM: The Open Source CFD Toolbox           |
|  \\    /   O peration     | Version:  5.x                                   |
|   \\  /    A nd           | Web:      www.OpenFOAM.org                      |
|    \\/     M anipulation  |                                                 |
\*---------------------------------------------------------------------------*/
FoamFile
{
    version     2.0;
    format      ascii;
    class       volScalarField;
    location    "0.1";
    object      T;
}
// * * * * * * * * * * * * * * * * * * * * * * * * * * * * * * * * * * * * * //

dimensions      [0 0 0 1 0 0 0];

internalField   nonuniform List<scalar> 
2048
(
9.77199
9.77205
9.77217
9.77235
9.77256
9.77281
9.77308
9.77336
9.77365
9.77393
9.7742
9.77445
9.77468
9.7749
9.77509
9.77526
9.77541
9.77555
9.77566
9.77576
9.77584
9.77592
9.77598
9.77603
9.77607
9.7761
9.77612
9.77614
9.77615
9.77615
9.77615
9.77614
9.77613
9.77611
9.77608
9.77604
9.77599
9.77593
9.77586
9.77578
9.77568
9.77556
9.77542
9.77526
9.77507
9.77485
9.77461
9.77432
9.774
9.77364
9.77325
9.77281
9.77234
9.77183
9.7713
9.77076
9.77021
9.76967
9.76916
9.7687
9.7683
9.76798
9.76776
9.76764
9.32594
9.32612
9.32649
9.327
9.32765
9.32839
9.3292
9.33004
9.33089
9.33172
9.33252
9.33327
9.33397
9.3346
9.33517
9.33568
9.33613
9.33652
9.33686
9.33715
9.3374
9.33761
9.33778
9.33793
9.33805
9.33814
9.33821
9.33826
9.33829
9.3383
9.3383
9.33827
9.33823
9.33816
9.33808
9.33797
9.33783
9.33765
9.33745
9.3372
9.33691
9.33656
9.33615
9.33567
9.33512
9.33448
9.33375
9.33291
9.33197
9.33091
9.32973
9.32844
9.32704
9.32554
9.32397
9.32235
9.32071
9.3191
9.31758
9.31619
9.31499
9.31404
9.31338
9.31304
8.89936
8.89968
8.90029
8.90115
8.90224
8.90348
8.90482
8.90622
8.90763
8.90901
8.91032
8.91156
8.9127
8.91373
8.91467
8.91549
8.91622
8.91686
8.91741
8.91789
8.91829
8.91863
8.91892
8.91915
8.91934
8.91949
8.91961
8.91969
8.91974
8.91976
8.91975
8.91971
8.91963
8.91953
8.91939
8.91921
8.91898
8.91871
8.91837
8.91797
8.9175
8.91694
8.91628
8.91551
8.91461
8.91357
8.91238
8.91102
8.90948
8.90775
8.90583
8.90371
8.90141
8.89895
8.89635
8.89367
8.89095
8.88829
8.88575
8.88343
8.88143
8.87984
8.87873
8.87816
8.4914
8.49185
8.49272
8.49395
8.49549
8.49725
8.49915
8.50112
8.50309
8.50501
8.50683
8.50854
8.51011
8.51154
8.51282
8.51395
8.51495
8.51582
8.51656
8.51721
8.51776
8.51822
8.5186
8.51892
8.51918
8.51938
8.51954
8.51965
8.51971
8.51974
8.51972
8.51967
8.51957
8.51943
8.51924
8.519
8.5187
8.51833
8.51788
8.51734
8.51669
8.51594
8.51504
8.514
8.51278
8.51137
8.50975
8.5079
8.50579
8.50342
8.50078
8.49787
8.49469
8.49128
8.48767
8.48392
8.48013
8.47638
8.47281
8.46954
8.46671
8.46445
8.46287
8.46207
8.1012
8.1018
8.10295
8.10459
8.10661
8.10892
8.1114
8.11395
8.11649
8.11896
8.1213
8.12348
8.12547
8.12727
8.12888
8.1303
8.13155
8.13263
8.13357
8.13437
8.13504
8.13562
8.13609
8.13649
8.1368
8.13706
8.13725
8.13738
8.13746
8.1375
8.13748
8.13741
8.1373
8.13712
8.13689
8.13659
8.13622
8.13576
8.1352
8.13454
8.13375
8.13281
8.1317
8.1304
8.12889
8.12714
8.12512
8.1228
8.12016
8.11718
8.11385
8.11016
8.10613
8.10178
8.09716
8.09235
8.08745
8.08259
8.07794
8.07367
8.06996
8.06699
8.06491
8.06384
7.72797
7.72873
7.7302
7.73227
7.73482
7.73772
7.74081
7.74398
7.74712
7.75014
7.75299
7.75562
7.75803
7.76019
7.76212
7.76382
7.7653
7.76658
7.76768
7.76862
7.76942
7.77009
7.77065
7.77111
7.77149
7.77178
7.772
7.77216
7.77226
7.7723
7.77228
7.7722
7.77206
7.77186
7.77159
7.77124
7.77081
7.77027
7.76962
7.76885
7.76792
7.76682
7.76552
7.764
7.76221
7.76014
7.75775
7.755
7.75186
7.74831
7.74431
7.73988
7.735
7.72972
7.72409
7.71819
7.71215
7.70614
7.70035
7.69501
7.69035
7.68661
7.68399
7.68264
7.37092
7.37187
7.37369
7.37625
7.37939
7.38293
7.38668
7.39049
7.39424
7.39783
7.40119
7.40428
7.40709
7.4096
7.41183
7.41378
7.41548
7.41694
7.4182
7.41927
7.42018
7.42094
7.42157
7.42209
7.42251
7.42284
7.42309
7.42327
7.42338
7.42342
7.4234
7.42331
7.42316
7.42293
7.42263
7.42224
7.42175
7.42115
7.42042
7.41954
7.4185
7.41726
7.41579
7.41406
7.41204
7.40968
7.40695
7.4038
7.40019
7.39609
7.39146
7.3863
7.3806
7.37439
7.36774
7.36073
7.35352
7.3463
7.33929
7.3328
7.32711
7.32252
7.31929
7.31763
7.02931
7.03047
7.03269
7.03581
7.0396
7.04383
7.04829
7.05279
7.05717
7.06134
7.06521
7.06876
7.07195
7.0748
7.07731
7.0795
7.0814
7.08303
7.08442
7.08561
7.08661
7.08745
7.08814
7.08871
7.08917
7.08954
7.08981
7.09001
7.09012
7.09017
7.09015
7.09006
7.08989
7.08964
7.08931
7.08888
7.08835
7.08769
7.0869
7.08594
7.08479
7.08342
7.08181
7.0799
7.07766
7.07505
7.07201
7.06849
7.06445
7.05984
7.05461
7.04875
7.04224
7.03512
7.02743
7.01929
7.01086
7.00235
6.99405
6.9863
6.97947
6.97394
6.97004
6.96803
6.70241
6.70382
6.7065
6.71024
6.71476
6.71977
6.72499
6.73021
6.73525
6.74001
6.7444
6.74839
6.75196
6.75512
6.75789
6.7603
6.76238
6.76416
6.76568
6.76697
6.76805
6.76895
6.7697
6.77032
6.77081
6.7712
6.7715
6.7717
6.77183
6.77188
6.77186
6.77176
6.77158
6.77132
6.77096
6.77051
6.76994
6.76923
6.76838
6.76735
6.76612
6.76465
6.7629
6.76084
6.75842
6.75558
6.75226
6.74841
6.74397
6.73888
6.73309
6.72655
6.71926
6.71123
6.70251
6.6932
6.68349
6.67362
6.66393
6.65481
6.64673
6.64015
6.63549
6.63308
6.38953
6.39122
6.39444
6.3989
6.40424
6.41009
6.41614
6.42212
6.42785
6.4332
6.4381
6.44252
6.44646
6.44992
6.45294
6.45554
6.45778
6.4597
6.46132
6.46269
6.46384
6.4648
6.4656
6.46625
6.46677
6.46718
6.46749
6.46771
6.46784
6.4679
6.46787
6.46777
6.46758
6.46731
6.46693
6.46646
6.46585
6.46512
6.46422
6.46313
6.46183
6.46027
6.45842
6.45623
6.45364
6.4506
6.44705
6.44291
6.43811
6.43258
6.42625
6.41907
6.41102
6.40209
6.39232
6.38183
6.3708
6.35949
6.34829
6.33767
6.32819
6.32044
6.31493
6.31206
6.08999
6.09202
6.09586
6.10114
6.10739
6.11419
6.12112
6.12791
6.13434
6.14029
6.1457
6.15054
6.15482
6.15856
6.1618
6.16459
6.16697
6.169
6.17071
6.17215
6.17336
6.17436
6.17519
6.17587
6.17642
6.17685
6.17717
6.1774
6.17754
6.1776
6.17757
6.17746
6.17727
6.17698
6.1766
6.1761
6.17548
6.17471
6.17378
6.17265
6.17129
6.16966
6.16773
6.16543
6.16271
6.1595
6.15574
6.15134
6.14622
6.14028
6.13346
6.12568
6.11689
6.10707
6.09627
6.08458
6.07217
6.05933
6.04651
6.03424
6.02322
6.01414
6.00766
6.00428
5.80315
5.80557
5.81014
5.81635
5.82365
5.83147
5.83936
5.84699
5.85414
5.8607
5.8666
5.87184
5.87645
5.88044
5.88389
5.88683
5.88934
5.89146
5.89324
5.89474
5.89599
5.89704
5.89789
5.89859
5.89916
5.8996
5.89993
5.90016
5.90031
5.90037
5.90034
5.90023
5.90003
5.89974
5.89934
5.89884
5.8982
5.89741
5.89645
5.89529
5.89389
5.89221
5.89021
5.88783
5.885
5.88166
5.87772
5.8731
5.86769
5.8614
5.85412
5.84577
5.83627
5.8256
5.81377
5.80085
5.78702
5.77258
5.758
5.74394
5.73118
5.72061
5.71303
5.70907
5.52838
5.53126
5.53667
5.54397
5.55243
5.56138
5.5703
5.5788
5.58669
5.59384
5.60022
5.60585
5.61075
5.61499
5.61861
5.62169
5.6243
5.62649
5.62834
5.62988
5.63117
5.63223
5.63311
5.63383
5.6344
5.63485
5.63519
5.63543
5.63557
5.63563
5.63561
5.63549
5.63529
5.635
5.6346
5.63408
5.63343
5.63263
5.63166
5.63048
5.62905
5.62734
5.62529
5.62284
5.61993
5.61647
5.61239
5.60759
5.60194
5.59533
5.58764
5.57876
5.5686
5.55709
5.54424
5.53009
5.5148
5.49868
5.48222
5.46618
5.4515
5.43924
5.43041
5.42579
5.26507
5.2685
5.2749
5.28344
5.29321
5.3034
5.3134
5.32281
5.33143
5.33917
5.34601
5.352
5.35718
5.36163
5.36541
5.3686
5.37129
5.37354
5.37543
5.377
5.37831
5.37939
5.38028
5.38101
5.38159
5.38204
5.38238
5.38263
5.38277
5.38283
5.38281
5.3827
5.38249
5.3822
5.38179
5.38127
5.38062
5.37982
5.37883
5.37764
5.3762
5.37447
5.37239
5.36989
5.36692
5.36339
5.3592
5.35424
5.34839
5.34151
5.33345
5.32409
5.3133
5.30099
5.28715
5.27177
5.255
5.23711
5.21864
5.20043
5.1836
5.16944
5.1592
5.15383
5.01263
5.01672
5.02428
5.03425
5.04548
5.05702
5.06816
5.0785
5.08785
5.09615
5.10344
5.10976
5.1152
5.11982
5.12373
5.12702
5.12977
5.13206
5.13397
5.13557
5.13689
5.13798
5.13888
5.13961
5.14019
5.14064
5.14099
5.14123
5.14138
5.14144
5.14141
5.1413
5.1411
5.1408
5.1404
5.13988
5.13923
5.13842
5.13744
5.13625
5.13481
5.13306
5.13097
5.12845
5.12544
5.12185
5.11758
5.11251
5.1065
5.09939
5.09101
5.08121
5.06983
5.05677
5.04196
5.02538
5.0071
4.98738
4.96676
4.94618
4.92696
4.91066
4.89881
4.89259
4.77051
4.77538
4.7843
4.79591
4.80877
4.82176
4.8341
4.84538
4.85544
4.86429
4.87198
4.87861
4.88427
4.88906
4.89307
4.89643
4.89921
4.90153
4.90346
4.90506
4.90638
4.90748
4.90838
4.9091
4.90968
4.91014
4.91048
4.91072
4.91086
4.91092
4.9109
4.91079
4.91059
4.91029
4.9099
4.90938
4.90873
4.90794
4.90696
4.90578
4.90434
4.90261
4.90051
4.89798
4.89495
4.89133
4.88701
4.88186
4.87573
4.86844
4.85979
4.8496
4.83769
4.82391
4.80817
4.79042
4.77064
4.74903
4.72612
4.70296
4.68108
4.66236
4.6487
4.64153
4.53816
4.54394
4.55446
4.56796
4.58263
4.59718
4.61076
4.62298
4.63373
4.64307
4.65115
4.65806
4.66391
4.66883
4.67293
4.67633
4.67914
4.68146
4.68339
4.68498
4.6863
4.68739
4.68829
4.68901
4.68958
4.69003
4.69037
4.6906
4.69075
4.69081
4.69079
4.69068
4.69048
4.69019
4.68979
4.68929
4.68865
4.68786
4.6869
4.68573
4.68432
4.68259
4.68051
4.67799
4.67496
4.67133
4.66698
4.66179
4.65559
4.64816
4.63929
4.62876
4.61636
4.60192
4.5853
4.56641
4.54515
4.5216
4.49628
4.47031
4.44548
4.42403
4.40833
4.40009
4.31504
4.3219
4.33431
4.34997
4.36664
4.38284
4.3977
4.41084
4.42223
4.43204
4.44046
4.44762
4.45364
4.45866
4.46282
4.46624
4.46905
4.47137
4.47328
4.47486
4.47617
4.47725
4.47814
4.47885
4.47941
4.47985
4.48018
4.48042
4.48056
4.48062
4.4806
4.48049
4.4803
4.48001
4.47962
4.47912
4.4785
4.47773
4.47679
4.47564
4.47425
4.47256
4.47049
4.468
4.46498
4.46136
4.45701
4.45182
4.44558
4.43806
4.42902
4.4182
4.40537
4.3903
4.37286
4.35289
4.33019
4.3047
4.27683
4.24782
4.21972
4.19517
4.17719
4.16777
4.10064
4.10877
4.1234
4.14155
4.16039
4.17834
4.19449
4.20852
4.22051
4.23073
4.23946
4.24684
4.253
4.2581
4.26229
4.26571
4.26851
4.2708
4.27268
4.27425
4.27554
4.2766
4.27747
4.27817
4.27873
4.27916
4.27948
4.27971
4.27985
4.27991
4.27988
4.27978
4.27959
4.27931
4.27893
4.27845
4.27784
4.27708
4.27617
4.27505
4.27369
4.27203
4.27001
4.26754
4.26456
4.26096
4.25664
4.25147
4.24523
4.23767
4.22851
4.21745
4.20424
4.1886
4.17039
4.14943
4.12536
4.09792
4.06739
4.0351
4.00337
3.97533
3.95478
3.94409
3.89447
3.90408
3.92133
3.94232
3.96353
3.98329
4.00075
4.01561
4.02813
4.03871
4.0477
4.05528
4.06155
4.0667
4.0709
4.0743
4.07706
4.07931
4.08117
4.0827
4.08397
4.08501
4.08587
4.08655
4.08709
4.08751
4.08782
4.08805
4.08818
4.08824
4.08822
4.08812
4.08794
4.08766
4.08729
4.08682
4.08622
4.08549
4.0846
4.08352
4.08221
4.08059
4.07861
4.07619
4.07325
4.06969
4.06542
4.0603
4.05411
4.04655
4.03731
4.02608
4.01253
3.99636
3.97745
3.95559
3.93024
3.9009
3.86758
3.83176
3.79606
3.76403
3.74065
3.72859
3.69603
3.70736
3.72773
3.75196
3.77568
3.79732
3.81607
3.8317
3.84468
3.85553
3.86476
3.87251
3.87887
3.88405
3.88824
3.8916
3.8943
3.8965
3.89831
3.89981
3.90105
3.90207
3.90291
3.90357
3.9041
3.9045
3.9048
3.90502
3.90515
3.90521
3.90519
3.90509
3.90491
3.90465
3.90429
3.90383
3.90325
3.90255
3.90169
3.90065
3.89938
3.89781
3.89589
3.89352
3.89064
3.88713
3.88292
3.87788
3.87177
3.86427
3.85499
3.84363
3.82982
3.81316
3.79359
3.77096
3.74445
3.71327
3.67707
3.63747
3.59743
3.56083
3.53432
3.52084
3.50488
3.51817
3.54223
3.57017
3.59653
3.62006
3.64009
3.6564
3.66973
3.6808
3.69024
3.69814
3.70455
3.70973
3.71389
3.71719
3.71982
3.72195
3.72372
3.72518
3.72638
3.72738
3.7282
3.72884
3.72935
3.72973
3.73003
3.73023
3.73036
3.73041
3.7304
3.7303
3.73013
3.72988
3.72953
3.72908
3.72853
3.72785
3.72702
3.72603
3.72481
3.7233
3.72143
3.71913
3.71632
3.71287
3.70873
3.70381
3.69782
3.69042
3.68115
3.66971
3.65569
3.63856
3.61838
3.59512
3.56762
3.53472
3.49553
3.45191
3.40716
3.36527
3.33537
3.32046
3.32055
3.33604
3.36451
3.39669
3.42574
3.45117
3.47245
3.48932
3.50292
3.51411
3.52374
3.53179
3.53821
3.54337
3.54749
3.5507
3.55324
3.5553
3.55701
3.55842
3.55959
3.56056
3.56136
3.56198
3.56246
3.56283
3.56311
3.56331
3.56344
3.56349
3.56347
3.56338
3.56322
3.56298
3.56264
3.5622
3.56167
3.56101
3.56022
3.55928
3.55812
3.55668
3.55488
3.55265
3.54991
3.54652
3.54246
3.53768
3.53186
3.5246
3.51538
3.50391
3.48976
3.47217
3.45141
3.42768
3.39936
3.36494
3.32265
3.27475
3.22499
3.17688
3.14336
3.1271
3.14264
3.16051
3.19428
3.23131
3.263
3.29031
3.31283
3.33011
3.34385
3.35507
3.36488
3.37309
3.37949
3.3846
3.38866
3.39176
3.3942
3.39616
3.39782
3.39919
3.40031
3.40126
3.40204
3.40263
3.40309
3.40344
3.40371
3.4039
3.40402
3.40407
3.40405
3.40397
3.40382
3.40358
3.40325
3.40283
3.40232
3.40169
3.40094
3.40005
3.39895
3.39759
3.39585
3.39369
3.39104
3.38771
3.38373
3.37913
3.3735
3.36645
3.3573
3.34586
3.33167
3.3136
3.29225
3.26826
3.23934
3.20364
3.15812
3.10569
3.05073
2.99518
2.95787
2.94043
2.97076
2.99111
3.0313
3.07387
3.10799
3.13715
3.16091
3.17839
3.19218
3.2033
3.21332
3.22169
3.22801
3.23306
3.23705
3.24002
3.24235
3.2442
3.2458
3.24713
3.2482
3.24913
3.24988
3.25045
3.25089
3.25121
3.25147
3.25166
3.25177
3.25182
3.2518
3.25173
3.25158
3.25136
3.25103
3.25062
3.25014
3.24954
3.24882
3.24798
3.24696
3.24567
3.244
3.24193
3.23938
3.2361
3.2322
3.2278
3.2224
3.21561
3.20655
3.19517
3.18106
3.16247
3.14048
3.11649
3.08717
3.05058
3.00165
2.94443
2.88428
2.81961
2.77852
2.76019
2.80454
2.82733
2.87533
2.92427
2.96038
2.99135
3.01638
3.03382
3.04755
3.05843
3.0687
3.07727
3.08345
3.08842
3.09234
3.09515
3.09735
3.09908
3.10063
3.10191
3.10292
3.10383
3.10458
3.10511
3.10552
3.10582
3.10607
3.10625
3.10635
3.1064
3.10639
3.10632
3.10618
3.10597
3.10565
3.10525
3.1048
3.10422
3.10353
3.10276
3.1018
3.10061
3.099
3.09701
3.09459
3.09135
3.0875
3.08335
3.07821
3.07174
3.06277
3.0515
3.03762
3.01843
2.99569
2.97202
2.9425
2.90554
2.85295
2.79063
2.72566
2.64955
2.60491
2.58617
2.64368
2.66859
2.72623
2.78246
2.81981
2.85258
2.87898
2.89603
2.90964
2.92011
2.9307
2.93953
2.94547
2.95035
2.95421
2.95683
2.95889
2.96049
2.96199
2.96323
2.96417
2.96507
2.96581
2.9663
2.96668
2.96696
2.9672
2.96737
2.96747
2.96751
2.9675
2.96744
2.96731
2.96711
2.9668
2.96641
2.96599
2.96544
2.96477
2.96407
2.96318
2.96209
2.96054
2.95864
2.95637
2.95314
2.94932
2.94546
2.9406
2.93455
2.92564
2.91449
2.90108
2.88114
2.85745
2.83451
2.80494
2.76835
2.71174
2.6439
2.57507
2.48424
2.43671
2.41819
2.48795
2.51425
2.58386
2.6485
2.68588
2.72052
2.74848
2.76469
2.77815
2.78795
2.79902
2.8082
2.81376
2.81855
2.82238
2.82475
2.82668
2.82811
2.82959
2.83078
2.83164
2.83254
2.83327
2.83372
2.83407
2.83432
2.83456
2.83472
2.83481
2.83485
2.83484
2.83479
2.83467
2.83449
2.83418
2.83379
2.83341
2.83288
2.83223
2.8316
2.83079
2.82981
2.82831
2.82649
2.82441
2.82117
2.81733
2.81383
2.80924
2.80372
2.79483
2.7838
2.77117
2.7503
2.72533
2.70368
2.67409
2.63889
2.57772
2.50377
2.43295
2.32276
2.2736
2.25615
2.33717
2.36356
2.44819
2.52252
2.55812
2.59485
2.62467
2.63942
2.65281
2.66162
2.67338
2.683
2.688
2.69272
2.69655
2.69861
2.70042
2.70165
2.70314
2.7043
2.70505
2.70596
2.7067
2.70709
2.70741
2.70763
2.70786
2.70802
2.7081
2.70814
2.70813
2.70808
2.70797
2.70782
2.70751
2.70711
2.70677
2.70627
2.70562
2.70509
2.70434
2.7035
2.70203
2.70028
2.69845
2.69515
2.69122
2.68817
2.68384
2.679
2.67002
2.65907
2.64767
2.6256
2.59886
2.57927
2.54949
2.51712
2.45061
2.36964
2.30004
2.16391
2.11537
2.09999
2.19129
2.21561
2.31925
2.40477
2.43597
2.47524
2.50741
2.51983
2.53338
2.54072
2.55349
2.56373
2.56788
2.57258
2.57647
2.57814
2.57985
2.58084
2.58237
2.5835
2.58411
2.58506
2.58581
2.58613
2.58643
2.5866
2.58684
2.587
2.58706
2.58711
2.58709
2.58705
2.58695
2.58682
2.58651
2.58609
2.58582
2.58533
2.58468
2.58425
2.58356
2.58289
2.58142
2.57972
2.57823
2.57482
2.5707
2.56823
2.56408
2.56014
2.55094
2.53995
2.53042
2.50679
2.47755
2.4611
2.43062
2.40309
2.33014
2.24069
2.17753
2.00616
1.96188
1.9497
2.05036
2.06931
2.19714
2.29562
2.31877
2.36141
2.39661
2.40551
2.41966
2.42489
2.43911
2.45015
2.4531
2.45786
2.4619
2.46306
2.46472
2.4654
2.46703
2.46814
2.46856
2.46958
2.47036
2.47058
2.47087
2.47099
2.47125
2.4714
2.47144
2.47149
2.47147
2.47145
2.47135
2.47126
2.47093
2.47049
2.4703
2.46982
2.46913
2.46884
2.46817
2.46772
2.46621
2.46455
2.46351
2.45991
2.45546
2.45375
2.44965
2.44692
2.43728
2.42606
2.41928
2.39363
2.36086
2.34907
2.31686
2.29695
2.21604
2.11584
2.06714
1.84753
1.8132
1.80529
1.91458
1.92331
2.08212
2.19558
2.20568
2.25307
2.29223
2.29599
2.31152
2.31372
2.33003
2.34211
2.34334
2.3483
2.35262
2.35309
2.35479
2.35506
2.35687
2.35797
2.35814
2.35927
2.3601
2.36019
2.36049
2.36054
2.36082
2.36097
2.36098
2.36105
2.36102
2.36101
2.36091
2.36087
2.36052
2.36003
2.35995
2.35948
2.35872
2.3586
2.35794
2.35775
2.35617
2.35448
2.35406
2.35018
2.34521
2.34451
2.34027
2.33915
2.32879
2.317
2.31416
2.28592
2.24818
2.24318
2.20748
2.19899
2.10811
1.99362
1.97132
1.68542
1.66958
1.6668
)
;

boundaryField
{
    left
    {
        type            zeroGradient;
    }
    right
    {
        type            zeroGradient;
    }
    interface
    {
        type            fixedValue;
        value           nonuniform List<scalar> 
64
(
1.84802
1.84802
2.02713
2.14946
2.14946
2.20037
2.24219
2.24219
2.25906
2.25906
2.27686
2.28964
2.28964
2.29482
2.29935
2.29935
2.30114
2.30114
2.3031
2.30419
2.30419
2.30541
2.30628
2.30628
2.30659
2.30659
2.3069
2.30704
2.30704
2.30712
2.30708
2.30708
2.30697
2.30697
2.30661
2.30608
2.30608
2.30561
2.30479
2.30479
2.30409
2.30409
2.30243
2.3007
2.3007
2.29662
2.29126
2.29126
2.28677
2.28677
2.27585
2.2635
2.2635
2.23357
2.19228
2.19228
2.15333
2.15333
2.05601
1.93148
1.93148
1.59907
1.59907
1.59907
)
;
    }
    bottom
    {
        type            fixedValue;
        value           uniform 10;
    }
    defaultFaces
    {
        type            empty;
    }
}


// ************************************************************************* //
