/*--------------------------------*- C++ -*----------------------------------*\
| =========                 |                                                 |
| \\      /  F ield         | OpenFOAM: The Open Source CFD Toolbox           |
|  \\    /   O peration     | Version:  5.x                                   |
|   \\  /    A nd           | Web:      www.OpenFOAM.org                      |
|    \\/     M anipulation  |                                                 |
\*---------------------------------------------------------------------------*/
FoamFile
{
    version     2.0;
    format      ascii;
    class       volScalarField;
    location    "0.1";
    object      T;
}
// * * * * * * * * * * * * * * * * * * * * * * * * * * * * * * * * * * * * * //

dimensions      [0 0 0 1 0 0 0];

internalField   nonuniform List<scalar> 
2048
(
9.77633
9.77633
9.77633
9.77633
9.77633
9.77632
9.77632
9.77631
9.7763
9.77629
9.77628
9.77627
9.77625
9.77623
9.77621
9.77618
9.77615
9.77611
9.77606
9.776
9.77594
9.77586
9.77577
9.77566
9.77553
9.77538
9.77521
9.775
9.77477
9.7745
9.77419
9.77384
9.77344
9.77298
9.77248
9.77192
9.7713
9.77062
9.76989
9.76911
9.76829
9.76744
9.76656
9.76568
9.76481
9.76395
9.76313
9.76236
9.76164
9.76098
9.76038
9.75985
9.75939
9.75898
9.75864
9.75834
9.7581
9.75789
9.75773
9.7576
9.7575
9.75742
9.75738
9.75735
9.33883
9.33883
9.33883
9.33882
9.33881
9.3388
9.33878
9.33876
9.33874
9.33871
9.33868
9.33864
9.33859
9.33853
9.33846
9.33838
9.33828
9.33817
9.33803
9.33786
9.33767
9.33744
9.33717
9.33685
9.33647
9.33604
9.33552
9.33493
9.33424
9.33344
9.33253
9.33149
9.33031
9.32897
9.32747
9.32581
9.32398
9.32198
9.31982
9.31751
9.31508
9.31254
9.30995
9.30733
9.30473
9.30219
9.29975
9.29745
9.29531
9.29336
9.2916
9.29004
9.28866
9.28747
9.28645
9.28559
9.28487
9.28427
9.28378
9.2834
9.2831
9.28288
9.28274
9.28268
8.92061
8.92061
8.9206
8.92059
8.92057
8.92055
8.92052
8.92049
8.92046
8.92041
8.92036
8.92029
8.92021
8.92012
8.92001
8.91988
8.91972
8.91953
8.91931
8.91904
8.91873
8.91836
8.91792
8.91741
8.9168
8.91609
8.91527
8.9143
8.91318
8.91189
8.91041
8.90872
8.90679
8.90462
8.90218
8.89946
8.89647
8.89319
8.88965
8.88586
8.88186
8.87769
8.87341
8.8691
8.86481
8.86063
8.85662
8.85284
8.84933
8.84613
8.84325
8.8407
8.83847
8.83653
8.83488
8.83348
8.83231
8.83134
8.83056
8.82994
8.82946
8.82912
8.82889
8.82878
8.52088
8.52088
8.52087
8.52085
8.52083
8.5208
8.52077
8.52073
8.52068
8.52062
8.52054
8.52045
8.52035
8.52023
8.52008
8.5199
8.51969
8.51943
8.51914
8.51878
8.51836
8.51786
8.51727
8.51657
8.51576
8.5148
8.51368
8.51237
8.51086
8.5091
8.50709
8.50478
8.50216
8.49919
8.49585
8.49213
8.48802
8.48351
8.47863
8.4734
8.46786
8.46208
8.45615
8.45016
8.44421
8.4384
8.43284
8.42761
8.42277
8.41836
8.41441
8.41092
8.40787
8.40524
8.40299
8.4011
8.39952
8.39821
8.39716
8.39632
8.39568
8.39522
8.39492
8.39477
8.1389
8.1389
8.13888
8.13886
8.13884
8.1388
8.13876
8.13871
8.13865
8.13857
8.13848
8.13838
8.13825
8.13809
8.13791
8.13769
8.13743
8.13712
8.13675
8.13632
8.1358
8.13518
8.13446
8.1336
8.13259
8.1314
8.13002
8.1284
8.12652
8.12434
8.12183
8.11895
8.11567
8.11195
8.10776
8.10308
8.0979
8.0922
8.08601
8.07936
8.07231
8.06494
8.05736
8.04969
8.04208
8.03466
8.02756
8.02089
8.01475
8.00917
8.00419
7.9998
7.99599
7.99271
7.98992
7.98757
7.98562
7.98401
7.98271
7.98169
7.9809
7.98033
7.97996
7.97978
7.77392
7.77392
7.7739
7.77388
7.77385
7.77381
7.77376
7.7737
7.77363
7.77354
7.77344
7.77332
7.77317
7.77299
7.77278
7.77252
7.77222
7.77186
7.77143
7.77092
7.77032
7.7696
7.76875
7.76775
7.76657
7.76518
7.76355
7.76165
7.75944
7.75687
7.7539
7.7505
7.74661
7.74218
7.73719
7.7316
7.72538
7.71853
7.71107
7.70303
7.69447
7.68551
7.67628
7.66692
7.65763
7.64858
7.63994
7.63185
7.62442
7.61771
7.61174
7.60651
7.60198
7.5981
7.59482
7.59206
7.58978
7.58791
7.58639
7.5852
7.58429
7.58363
7.58321
7.583
7.42524
7.42523
7.42521
7.42519
7.42516
7.42511
7.42506
7.42499
7.42491
7.42482
7.4247
7.42456
7.42439
7.42419
7.42396
7.42367
7.42334
7.42293
7.42245
7.42188
7.4212
7.4204
7.41944
7.41831
7.41698
7.41541
7.41357
7.41142
7.4089
7.40598
7.4026
7.39871
7.39425
7.38917
7.38342
7.37696
7.36976
7.3618
7.35309
7.34367
7.33363
7.32306
7.31215
7.30108
7.29008
7.27938
7.26919
7.25968
7.25098
7.24316
7.23625
7.23023
7.22504
7.22062
7.21689
7.21378
7.21121
7.20911
7.20742
7.20608
7.20507
7.20433
7.20386
7.20362
7.09215
7.09215
7.09213
7.0921
7.09207
7.09202
7.09196
7.09189
7.0918
7.09169
7.09156
7.09141
7.09123
7.09102
7.09076
7.09045
7.09008
7.08964
7.08912
7.0885
7.08775
7.08687
7.08583
7.08459
7.08313
7.08141
7.07938
7.077
7.07422
7.07099
7.06723
7.0629
7.05792
7.05223
7.04577
7.03849
7.03034
7.0213
7.01138
7.00061
6.98907
6.97689
6.96427
6.95145
6.9387
6.92631
6.91454
6.9036
6.89365
6.88477
6.87696
6.8702
6.86441
6.85951
6.85539
6.85197
6.84916
6.84686
6.84502
6.84357
6.84247
6.84168
6.84117
6.84091
6.77399
6.77398
6.77396
6.77394
6.7739
6.77385
6.77379
6.77371
6.77361
6.7735
6.77337
6.7732
6.77301
6.77278
6.77251
6.77218
6.77179
6.77132
6.77076
6.77009
6.7693
6.76836
6.76724
6.76591
6.76434
6.76248
6.7603
6.75773
6.75472
6.7512
6.74711
6.74238
6.73693
6.73068
6.72356
6.71551
6.70646
6.69639
6.68528
6.67316
6.66013
6.64632
6.63195
6.61732
6.60277
6.58864
6.57526
6.56289
6.5517
6.54178
6.53313
6.52569
6.51936
6.51403
6.50959
6.50591
6.5029
6.50045
6.49849
6.49696
6.49579
6.49495
6.49441
6.49414
6.4701
6.4701
6.47008
6.47005
6.47001
6.46996
6.46989
6.46981
6.46971
6.4696
6.46945
6.46929
6.46908
6.46884
6.46856
6.46821
6.4678
6.46731
6.46673
6.46603
6.46519
6.4642
6.46302
6.46162
6.45996
6.45799
6.45567
6.45294
6.44973
6.44597
6.44159
6.43651
6.43063
6.42387
6.41614
6.40736
6.39746
6.38639
6.37413
6.36069
6.34616
6.33069
6.31453
6.29803
6.2816
6.26566
6.25063
6.23681
6.22441
6.2135
6.20405
6.196
6.1892
6.18351
6.1788
6.17491
6.17174
6.16918
6.16714
6.16554
6.16433
6.16345
6.16289
6.16261
6.17987
6.17987
6.17985
6.17982
6.17978
6.17972
6.17966
6.17957
6.17947
6.17935
6.1792
6.17903
6.17882
6.17858
6.17828
6.17792
6.1775
6.17699
6.17639
6.17566
6.1748
6.17377
6.17254
6.17108
6.16935
6.16729
6.16486
6.16199
6.15862
6.15465
6.15002
6.14463
6.13837
6.13115
6.12286
6.11341
6.10271
6.0907
6.07731
6.06257
6.04654
6.02938
6.01137
5.99293
5.97453
5.95672
5.93998
5.9247
5.9111
5.89923
5.88906
5.88046
5.87326
5.86729
5.86236
5.85832
5.85504
5.8524
5.8503
5.84866
5.84742
5.84653
5.84596
5.84567
5.90268
5.90269
5.90266
5.90264
5.9026
5.90254
5.90248
5.90239
5.90229
5.90216
5.90201
5.90184
5.90163
5.90137
5.90107
5.90071
5.90028
5.89976
5.89914
5.89839
5.89751
5.89645
5.89519
5.89369
5.8919
5.88978
5.88727
5.88429
5.88077
5.87664
5.87179
5.86613
5.85954
5.85191
5.84312
5.83305
5.8216
5.80868
5.79422
5.7782
5.76067
5.7418
5.72188
5.70139
5.68093
5.66115
5.64265
5.62589
5.61111
5.59835
5.58753
5.57846
5.57093
5.56473
5.55965
5.55551
5.55217
5.54948
5.54736
5.5457
5.54445
5.54355
5.54297
5.54268
5.63797
5.63797
5.63796
5.63793
5.63789
5.63784
5.63777
5.63768
5.63758
5.63745
5.6373
5.63712
5.63691
5.63666
5.63635
5.63599
5.63555
5.63502
5.63439
5.63364
5.63274
5.63167
5.63039
5.62886
5.62704
5.62487
5.62229
5.61923
5.6156
5.61133
5.60631
5.60042
5.59355
5.58555
5.5763
5.56567
5.55353
5.53976
5.52428
5.50701
5.48799
5.46737
5.44547
5.42284
5.40019
5.37834
5.35801
5.33975
5.32382
5.31023
5.29883
5.28938
5.2816
5.27525
5.27008
5.26589
5.26252
5.25983
5.2577
5.25604
5.25479
5.2539
5.25332
5.25304
5.38518
5.38518
5.38516
5.38513
5.3851
5.38505
5.38498
5.3849
5.38479
5.38466
5.38451
5.38434
5.38412
5.38387
5.38356
5.3832
5.38276
5.38223
5.3816
5.38085
5.37994
5.37886
5.37757
5.37602
5.37418
5.37198
5.36936
5.36624
5.36254
5.35816
5.35299
5.34692
5.33981
5.3315
5.32185
5.31071
5.29793
5.28337
5.26691
5.24844
5.22795
5.20555
5.1816
5.15671
5.13174
5.10768
5.08544
5.06567
5.04863
5.03429
5.0224
5.01265
5.00471
4.99828
4.99308
4.98889
4.98553
4.98286
4.98075
4.97911
4.97788
4.977
4.97644
4.97616
5.14376
5.14377
5.14375
5.14372
5.14369
5.14364
5.14358
5.14349
5.14339
5.14326
5.14311
5.14294
5.14272
5.14247
5.14217
5.1418
5.14137
5.14085
5.14022
5.13946
5.13856
5.13748
5.13619
5.13464
5.13279
5.13058
5.12793
5.12477
5.12102
5.11656
5.11129
5.10508
5.09777
5.08919
5.07919
5.06759
5.05424
5.03896
5.02158
5.00195
4.98001
4.95582
4.92974
4.90245
4.875
4.84859
4.82436
4.80307
4.78498
4.76997
4.75769
4.74775
4.73972
4.73328
4.7281
4.72396
4.72065
4.71802
4.71596
4.71436
4.71316
4.71231
4.71176
4.71148
4.91322
4.91322
4.91321
4.91318
4.91316
4.9131
4.91304
4.91296
4.91286
4.91274
4.91259
4.91241
4.9122
4.91195
4.91166
4.9113
4.91087
4.91035
4.90973
4.90898
4.90809
4.90701
4.90573
4.90419
4.90235
4.90014
4.89748
4.89431
4.89053
4.88602
4.88068
4.87436
4.86689
4.8581
4.84779
4.8358
4.82193
4.80598
4.78775
4.76704
4.74369
4.71769
4.68939
4.65958
4.62946
4.60051
4.57419
4.55138
4.53231
4.51674
4.50419
4.49414
4.48612
4.47973
4.47464
4.47058
4.46735
4.4648
4.4628
4.46126
4.4601
4.45927
4.45874
4.45848
4.69306
4.69306
4.69306
4.69302
4.69301
4.69295
4.69289
4.69281
4.69271
4.69259
4.69245
4.69228
4.69207
4.69183
4.69153
4.69118
4.69076
4.69026
4.68964
4.68891
4.68802
4.68696
4.68569
4.68417
4.68235
4.68016
4.67752
4.67435
4.67055
4.66602
4.66064
4.65425
4.64668
4.63771
4.62715
4.6148
4.60047
4.58393
4.56493
4.5432
4.51849
4.4907
4.4601
4.42759
4.39459
4.36291
4.33438
4.31006
4.29011
4.27409
4.26139
4.25135
4.24342
4.23716
4.23219
4.22826
4.22515
4.22269
4.22078
4.2193
4.21819
4.2174
4.21689
4.21664
4.48281
4.48281
4.48281
4.48278
4.48276
4.48271
4.48266
4.48258
4.48248
4.48236
4.48222
4.48206
4.48186
4.48162
4.48133
4.48099
4.48058
4.48009
4.47949
4.47877
4.4779
4.47686
4.47561
4.47412
4.47232
4.47016
4.46755
4.4644
4.46061
4.45608
4.45068
4.44426
4.43662
4.42753
4.41675
4.40411
4.38939
4.37232
4.35262
4.32997
4.30397
4.27439
4.24142
4.20603
4.16992
4.13525
4.1044
4.0786
4.05788
4.04157
4.02884
4.01892
4.01116
4.00508
4.0003
3.99653
3.99355
3.99122
3.98939
3.98799
3.98694
3.98619
3.98571
3.98547
4.28203
4.28202
4.28203
4.282
4.28199
4.28194
4.28188
4.28181
4.28172
4.2816
4.28147
4.2813
4.28111
4.28088
4.2806
4.28027
4.27987
4.27939
4.27881
4.27811
4.27726
4.27625
4.27503
4.27357
4.27181
4.26969
4.26712
4.264
4.26025
4.25573
4.25034
4.24393
4.23626
4.22709
4.21614
4.20324
4.18818
4.17065
4.15035
4.12688
4.09969
4.06835
4.03292
3.99448
3.95499
3.91703
3.88373
3.85651
3.83517
3.81872
3.80611
3.79641
3.7889
3.78307
3.77851
3.77493
3.77211
3.76991
3.76819
3.76688
3.76589
3.76519
3.76474
3.76451
4.09028
4.09027
4.09029
4.09025
4.09025
4.0902
4.09015
4.09008
4.08999
4.08988
4.08975
4.08959
4.0894
4.08918
4.08891
4.08859
4.08821
4.08775
4.08719
4.0865
4.08568
4.08469
4.0835
4.08209
4.08038
4.07831
4.07579
4.07272
4.06901
4.06453
4.05918
4.0528
4.04515
4.03593
4.02484
4.01173
3.9964
3.97848
3.95765
3.93348
3.90522
3.87219
3.83422
3.79253
3.74936
3.70774
3.67185
3.64331
3.62152
3.60512
3.59277
3.5834
3.57623
3.57069
3.56638
3.56302
3.56039
3.55833
3.55673
3.55551
3.55459
3.55394
3.55352
3.55331
3.90716
3.90715
3.90717
3.90713
3.90714
3.90709
3.90704
3.90698
3.90689
3.90678
3.90666
3.9065
3.90632
3.90611
3.90585
3.90555
3.90518
3.90474
3.9042
3.90354
3.90274
3.90178
3.90063
3.89926
3.89761
3.8956
3.89314
3.89014
3.88649
3.88205
3.87675
3.87045
3.86286
3.85363
3.84244
3.82914
3.8136
3.79536
3.77408
3.74935
3.72015
3.68553
3.64494
3.59979
3.55266
3.50688
3.46827
3.43855
3.41655
3.40039
3.38844
3.3795
3.37273
3.36754
3.36352
3.3604
3.35797
3.35607
3.35459
3.35346
3.35262
3.35202
3.35164
3.35144
3.73227
3.73226
3.73229
3.73226
3.73226
3.73222
3.73217
3.73211
3.73203
3.73193
3.7318
3.73166
3.73148
3.73128
3.73103
3.73074
3.7304
3.72997
3.72945
3.72882
3.72805
3.72712
3.72601
3.72469
3.72311
3.72117
3.71878
3.71585
3.71227
3.70789
3.70266
3.69646
3.68897
3.67979
3.6685
3.65505
3.63936
3.62085
3.5992
3.57407
3.54411
3.50802
3.46474
3.41591
3.36451
3.31396
3.27251
3.24181
3.21986
3.20415
3.19276
3.18435
3.17804
3.17323
3.16953
3.16667
3.16444
3.1627
3.16136
3.16033
3.15956
3.15902
3.15867
3.1585
3.56525
3.56524
3.56526
3.56524
3.56525
3.56521
3.56517
3.56511
3.56503
3.56494
3.56482
3.56467
3.56451
3.56431
3.56408
3.56381
3.56348
3.56308
3.56258
3.56197
3.56123
3.56033
3.55926
3.558
3.55649
3.55464
3.55232
3.54947
3.54598
3.54166
3.5365
3.53045
3.5231
3.51401
3.50264
3.48905
3.47329
3.45455
3.43258
3.40723
3.3767
3.33935
3.29326
3.24055
3.18463
3.12845
3.08406
3.05269
3.03109
3.01607
3.00537
2.99758
2.99178
2.98739
2.98403
2.98144
2.97942
2.97786
2.97665
2.97572
2.97503
2.97454
2.97423
2.97407
3.40572
3.40572
3.40575
3.40573
3.40575
3.40571
3.40567
3.40561
3.40554
3.40545
3.40533
3.4052
3.40504
3.40485
3.40463
3.40437
3.40407
3.40369
3.40321
3.40263
3.40193
3.40105
3.40002
3.39883
3.3974
3.39564
3.3934
3.39064
3.38725
3.38299
3.37791
3.37204
3.36488
3.35593
3.34447
3.33073
3.315
3.29607
3.27381
3.24845
3.21756
3.17921
3.1302
3.07336
3.01277
2.94982
2.90248
2.87082
2.84994
2.83582
2.82595
2.81885
2.81361
2.80967
2.80666
2.80435
2.80255
2.80116
2.80009
2.79927
2.79865
2.79822
2.79794
2.7978
3.25336
3.25337
3.2534
3.25339
3.25341
3.25337
3.25333
3.25328
3.25322
3.25313
3.25302
3.25289
3.25274
3.25256
3.25235
3.25211
3.25182
3.25147
3.25102
3.25047
3.2498
3.24895
3.24795
3.24683
3.24548
3.24382
3.24167
3.23901
3.23574
3.23152
3.22651
3.22087
3.21393
3.2052
3.19363
3.17971
3.16413
3.14503
3.12245
3.09735
3.06631
3.02734
2.97523
2.914
2.84879
2.77747
2.72728
2.69587
2.67609
2.6631
2.65419
2.64785
2.6432
2.63972
2.63707
2.63504
2.63347
2.63226
2.63132
2.6306
2.63006
2.62969
2.62945
2.62932
3.10783
3.10786
3.10788
3.10789
3.1079
3.10787
3.10784
3.10779
3.10773
3.10765
3.10754
3.10741
3.10727
3.1071
3.1069
3.10668
3.10642
3.10609
3.10566
3.10514
3.10451
3.10368
3.10271
3.10168
3.10042
3.09887
3.09679
3.09423
3.09111
3.08693
3.08196
3.0766
3.06992
3.06149
3.04976
3.03561
3.02034
3.00109
2.97811
2.95357
2.92257
2.88351
2.82804
2.76211
2.69269
2.61071
2.55803
2.52755
2.50929
2.49764
2.48978
2.48425
2.48021
2.47721
2.47493
2.47319
2.47184
2.4708
2.46999
2.46938
2.46892
2.4686
2.4684
2.46829
2.96882
2.96886
2.96889
2.96891
2.96893
2.9689
2.96887
2.96883
2.96877
2.96869
2.96859
2.96846
2.96833
2.96817
2.96798
2.96778
2.96754
2.96724
2.96683
2.96633
2.96575
2.96494
2.964
2.96305
2.96188
2.96046
2.95845
2.95599
2.95306
2.94888
2.94391
2.9389
2.93252
2.92452
2.91256
2.89805
2.88334
2.8639
2.84035
2.81678
2.78597
2.74754
2.68832
2.61729
2.54462
2.44875
2.39431
2.3656
2.34929
2.33917
2.33245
2.32775
2.32435
2.32183
2.31992
2.31846
2.31734
2.31647
2.31579
2.31529
2.3149
2.31464
2.31447
2.31437
2.83605
2.8361
2.83614
2.83616
2.83618
2.83616
2.83612
2.83609
2.83604
2.83597
2.83586
2.83574
2.83562
2.83547
2.83528
2.83511
2.83489
2.83462
2.83423
2.83376
2.83323
2.83243
2.8315
2.83065
2.82957
2.82829
2.82634
2.82399
2.8213
2.81708
2.81206
2.80749
2.8014
2.79399
2.78169
2.76666
2.75285
2.73317
2.70874
2.68668
2.65606
2.61931
2.55578
2.47903
2.405
2.29061
2.23575
2.20981
2.19586
2.18743
2.18191
2.17808
2.17532
2.17327
2.17173
2.17055
2.16965
2.16894
2.1684
2.168
2.16769
2.16747
2.16734
2.16726
2.70922
2.70927
2.70933
2.70936
2.70938
2.70936
2.70933
2.7093
2.70925
2.70919
2.70909
2.70896
2.70886
2.70871
2.70853
2.70838
2.70818
2.70795
2.70757
2.70713
2.70667
2.70586
2.70492
2.70419
2.70319
2.7021
2.70018
2.69791
2.69555
2.69123
2.68607
2.68206
2.67625
2.66966
2.65688
2.64104
2.62862
2.60862
2.58282
2.56301
2.5324
2.49877
2.43011
2.3467
2.27456
2.13506
2.08207
2.06002
2.0488
2.04219
2.0379
2.03494
2.03282
2.03125
2.03007
2.02917
2.02847
2.02793
2.02752
2.02721
2.02697
2.02681
2.02671
2.02665
2.58807
2.58812
2.5882
2.58825
2.58826
2.58824
2.58821
2.58818
2.58814
2.58809
2.58799
2.58786
2.58777
2.58763
2.58745
2.58733
2.58714
2.58697
2.58659
2.58616
2.58579
2.58497
2.584
2.58341
2.58248
2.58161
2.57969
2.57749
2.57555
2.57108
2.56564
2.56237
2.55674
2.5513
2.53785
2.52081
2.51045
2.49003
2.46212
2.44559
2.41446
2.38597
2.31103
2.21949
2.15446
1.98054
1.93308
1.91612
1.90794
1.9032
1.90016
1.89808
1.89658
1.89548
1.89465
1.89401
1.89353
1.89315
1.89286
1.89264
1.89248
1.89236
1.89229
1.89225
2.47235
2.47238
2.4725
2.47255
2.47256
2.47255
2.47251
2.47249
2.47245
2.47242
2.47231
2.47217
2.47211
2.47198
2.47178
2.4717
2.47153
2.47141
2.47102
2.47061
2.47035
2.46949
2.46846
2.46806
2.46717
2.46657
2.46461
2.46244
2.46108
2.45635
2.45045
2.44818
2.44256
2.43874
2.42436
2.40554
2.39818
2.3772
2.34609
2.3343
2.30161
2.28107
2.19827
2.09629
2.04642
1.82503
1.7888
1.77803
1.77308
1.77026
1.76846
1.76722
1.76634
1.76569
1.7652
1.76483
1.76454
1.76432
1.76415
1.76402
1.76392
1.76385
1.76381
1.76379
2.3618
2.36181
2.36197
2.36203
2.36203
2.36202
2.36198
2.36198
2.36193
2.36192
2.3618
2.36165
2.36163
2.36149
2.36128
2.36125
2.36108
2.36103
2.36062
2.36021
2.36011
2.35919
2.35806
2.3579
2.357
2.35676
2.35469
2.35248
2.35192
2.34682
2.34021
2.33928
2.33338
2.3318
2.31619
2.29476
2.29168
2.26997
2.23413
2.22916
2.19309
2.18437
2.09161
1.9756
1.95288
1.66591
1.64944
1.64572
1.64407
1.64313
1.64254
1.64213
1.64184
1.64163
1.64147
1.64134
1.64125
1.64118
1.64112
1.64108
1.64105
1.64102
1.64101
1.641
)
;

boundaryField
{
    left
    {
        type            zeroGradient;
    }
    right
    {
        type            zeroGradient;
    }
    interface
    {
        type            fixedValue;
        value           nonuniform List<scalar> 
64
(
2.30781
2.30781
2.308
2.30806
2.30806
2.30805
2.30801
2.30801
2.30796
2.30796
2.30784
2.30767
2.30767
2.30754
2.30732
2.30732
2.30713
2.30713
2.30671
2.30629
2.30629
2.30533
2.30412
2.30412
2.30318
2.30318
2.30101
2.29874
2.29874
2.29337
2.28622
2.28622
2.27995
2.27995
2.26351
2.24017
2.24017
2.21797
2.17863
2.17863
2.13936
2.13936
2.04012
1.91417
1.91417
1.58101
1.58101
1.58101
1.58101
1.58101
1.58101
1.58101
1.58101
1.58101
1.58101
1.58101
1.58101
1.58101
1.58101
1.58101
1.58101
1.58101
1.58101
1.58101
)
;
    }
    bottom
    {
        type            fixedValue;
        value           uniform 10;
    }
    defaultFaces
    {
        type            empty;
    }
}


// ************************************************************************* //
