/*--------------------------------*- C++ -*----------------------------------*\
| =========                 |                                                 |
| \\      /  F ield         | OpenFOAM: The Open Source CFD Toolbox           |
|  \\    /   O peration     | Version:  5.x                                   |
|   \\  /    A nd           | Web:      www.OpenFOAM.org                      |
|    \\/     M anipulation  |                                                 |
\*---------------------------------------------------------------------------*/
FoamFile
{
    version     2.0;
    format      ascii;
    class       volScalarField;
    location    "0.4";
    object      gradTy;
}
// * * * * * * * * * * * * * * * * * * * * * * * * * * * * * * * * * * * * * //

dimensions      [0 -1 0 1 0 0 0];

internalField   nonuniform List<scalar> 
2048
(
-27.1516
-27.1286
-27.0839
-27.0193
-26.9375
-26.8419
-26.7357
-26.6223
-26.5049
-26.3864
-26.269
-26.1547
-26.0451
-25.9413
-25.844
-25.7538
-25.6707
-25.5948
-25.5261
-25.4642
-25.409
-25.3601
-25.3171
-25.2798
-25.2478
-25.2209
-25.1988
-25.1814
-25.1685
-25.1599
-25.1557
-25.1557
-25.1602
-25.1691
-25.1826
-25.2009
-25.2244
-25.2533
-25.2882
-25.3293
-25.3774
-25.4328
-25.4962
-25.5681
-25.6492
-25.74
-25.841
-25.9524
-26.0745
-26.2073
-26.3503
-26.5028
-26.6636
-26.8309
-27.0024
-27.1752
-27.3456
-27.5095
-27.6625
-27.7998
-27.9166
-28.0086
-28.0721
-28.1046
-27.1684
-27.1446
-27.0983
-27.0314
-26.9471
-26.8486
-26.7396
-26.6237
-26.504
-26.3835
-26.2645
-26.149
-26.0384
-25.934
-25.8363
-25.7458
-25.6626
-25.5869
-25.5183
-25.4566
-25.4016
-25.3529
-25.3102
-25.2731
-25.2413
-25.2146
-25.1927
-25.1754
-25.1625
-25.154
-25.1498
-25.1498
-25.1541
-25.1629
-25.1762
-25.1943
-25.2176
-25.2462
-25.2807
-25.3214
-25.369
-25.424
-25.4869
-25.5584
-25.6391
-25.7296
-25.8303
-25.9416
-26.0638
-26.1969
-26.3406
-26.4941
-26.6563
-26.8256
-26.9995
-27.1752
-27.349
-27.5167
-27.6735
-27.8146
-27.935
-28.0299
-28.0956
-28.1292
-27.2009
-27.1754
-27.1258
-27.0546
-26.9652
-26.8613
-26.747
-26.6261
-26.502
-26.3777
-26.2557
-26.1378
-26.0255
-25.9199
-25.8214
-25.7306
-25.6474
-25.5717
-25.5034
-25.4422
-25.3876
-25.3394
-25.2971
-25.2604
-25.2291
-25.2027
-25.1811
-25.164
-25.1513
-25.1428
-25.1386
-25.1385
-25.1427
-25.1512
-25.1642
-25.1819
-25.2046
-25.2327
-25.2665
-25.3065
-25.3532
-25.4073
-25.4694
-25.5401
-25.62
-25.7097
-25.8099
-25.921
-26.0433
-26.177
-26.3218
-26.4773
-26.6422
-26.8151
-26.9937
-27.1749
-27.3552
-27.53
-27.6944
-27.8429
-27.9702
-28.0709
-28.1408
-28.1766
-27.2481
-27.2201
-27.1657
-27.088
-26.991
-26.8792
-26.7571
-26.629
-26.4987
-26.3691
-26.2428
-26.1216
-26.0069
-25.8996
-25.8002
-25.7089
-25.6256
-25.5503
-25.4825
-25.4218
-25.3679
-25.3204
-25.2787
-25.2427
-25.2119
-25.186
-25.1647
-25.148
-25.1355
-25.1272
-25.1229
-25.1228
-25.1267
-25.1349
-25.1474
-25.1645
-25.1865
-25.2137
-25.2465
-25.2854
-25.331
-25.3839
-25.4447
-25.5141
-25.5929
-25.6816
-25.781
-25.8917
-26.0141
-26.1485
-26.2949
-26.4529
-26.6216
-26.7996
-26.9847
-27.1738
-27.3633
-27.5485
-27.7238
-27.8833
-28.0207
-28.1301
-28.2062
-28.2453
-27.3096
-27.2781
-27.2172
-27.1308
-27.0237
-26.9014
-26.7692
-26.6319
-26.4935
-26.3573
-26.2256
-26.1004
-25.9828
-25.8736
-25.7731
-25.6813
-25.5982
-25.5233
-25.4561
-25.3963
-25.3433
-25.2966
-25.2558
-25.2205
-25.1904
-25.1651
-25.1444
-25.1281
-25.1159
-25.1077
-25.1034
-25.1032
-25.1068
-25.1146
-25.1265
-25.1429
-25.164
-25.1901
-25.2217
-25.2592
-25.3033
-25.3546
-25.4138
-25.4816
-25.5588
-25.6462
-25.7445
-25.8545
-25.9768
-26.1119
-26.2601
-26.4212
-26.5945
-26.7788
-26.972
-27.1712
-27.3725
-27.571
-27.7606
-27.9346
-28.0855
-28.2064
-28.2909
-28.3344
-27.3854
-27.3494
-27.2801
-27.1824
-27.0625
-26.9271
-26.7824
-26.6339
-26.486
-26.3419
-26.2042
-26.0743
-25.9535
-25.8422
-25.7406
-25.6485
-25.5656
-25.4913
-25.4251
-25.3663
-25.3143
-25.2687
-25.229
-25.1947
-25.1654
-25.1409
-25.1208
-25.1049
-25.093
-25.085
-25.0808
-25.0804
-25.0837
-25.091
-25.1023
-25.1178
-25.1378
-25.1626
-25.1927
-25.2287
-25.271
-25.3204
-25.3776
-25.4435
-25.5188
-25.6044
-25.7012
-25.8102
-25.9322
-26.0679
-26.218
-26.3824
-26.5609
-26.7523
-26.955
-27.1661
-27.3816
-27.5964
-27.8037
-27.9957
-28.1637
-28.2992
-28.3944
-28.4436
-27.4758
-27.4341
-27.3542
-27.2424
-27.1068
-26.9554
-26.7959
-26.6343
-26.4755
-26.3227
-26.1781
-26.0433
-25.9191
-25.8057
-25.703
-25.6108
-25.5284
-25.4551
-25.39
-25.3325
-25.2818
-25.2375
-25.1989
-25.1657
-25.1374
-25.1137
-25.0943
-25.079
-25.0675
-25.0597
-25.0555
-25.0549
-25.058
-25.0647
-25.0752
-25.0897
-25.1085
-25.1319
-25.1604
-25.1945
-25.2347
-25.282
-25.3369
-25.4005
-25.4735
-25.557
-25.652
-25.7595
-25.8808
-26.0169
-26.1687
-26.3365
-26.5205
-26.7199
-26.9331
-27.1577
-27.3897
-27.6235
-27.8519
-28.0657
-28.2547
-28.4082
-28.5167
-28.5729
-27.5815
-27.5325
-27.4394
-27.3103
-27.1556
-26.9855
-26.8087
-26.6324
-26.4615
-26.2991
-26.1474
-26.0074
-25.8797
-25.7643
-25.6608
-25.5688
-25.4871
-25.415
-25.3514
-25.2954
-25.2463
-25.2034
-25.1661
-25.1341
-25.1069
-25.0842
-25.0656
-25.0509
-25.0398
-25.0323
-25.0281
-25.0274
-25.03
-25.0362
-25.0459
-25.0594
-25.0769
-25.0987
-25.1253
-25.1573
-25.1953
-25.24
-25.2924
-25.3533
-25.4237
-25.5047
-25.5974
-25.7031
-25.8233
-25.9594
-26.1125
-26.2837
-26.4733
-26.681
-26.9057
-27.145
-27.3954
-27.6511
-27.904
-28.1437
-28.3578
-28.5332
-28.6579
-28.7228
-27.7032
-27.6453
-27.5358
-27.3858
-27.2083
-27.0162
-26.8199
-26.6272
-26.4433
-26.2709
-26.1118
-25.9666
-25.8354
-25.7182
-25.6143
-25.5227
-25.4423
-25.3718
-25.3099
-25.2557
-25.2083
-25.167
-25.1312
-25.1005
-25.0745
-25.0529
-25.0351
-25.0211
-25.0105
-25.0032
-24.9991
-24.9982
-25.0005
-25.006
-25.0149
-25.0272
-25.0433
-25.0635
-25.0881
-25.1178
-25.1532
-25.1953
-25.2448
-25.3028
-25.3702
-25.4483
-25.5382
-25.6416
-25.7601
-25.8956
-26.0497
-26.2239
-26.4191
-26.6353
-26.8719
-27.1271
-27.3976
-27.6777
-27.9588
-28.2288
-28.4727
-28.6743
-28.8186
-28.8939
-27.8422
-27.7732
-27.6436
-27.4682
-27.2639
-27.0464
-26.8283
-26.6179
-26.4203
-26.2377
-26.0711
-25.9208
-25.7865
-25.6678
-25.5638
-25.4731
-25.3943
-25.3258
-25.266
-25.2139
-25.1683
-25.1287
-25.0945
-25.0653
-25.0406
-25.02
-25.0033
-24.9899
-24.9798
-24.9728
-24.9688
-24.9677
-24.9696
-24.9745
-24.9826
-24.9938
-25.0084
-25.0267
-25.0492
-25.0764
-25.1091
-25.1482
-25.1946
-25.2494
-25.3136
-25.3884
-25.4751
-25.5755
-25.6917
-25.8259
-25.9805
-26.1573
-26.3577
-26.5824
-26.8312
-27.1029
-27.395
-27.702
-28.0149
-28.3199
-28.5988
-28.8317
-28.9994
-29.0872
-27.9999
-27.9171
-27.7629
-27.557
-27.3211
-27.0749
-26.8326
-26.6035
-26.3919
-26.1992
-26.0254
-25.8702
-25.7331
-25.6133
-25.5095
-25.4203
-25.3436
-25.2775
-25.2202
-25.1703
-25.1269
-25.0891
-25.0566
-25.0288
-25.0055
-24.9862
-24.9704
-24.9579
-24.9483
-24.9416
-24.9376
-24.9364
-24.9379
-24.9422
-24.9493
-24.9594
-24.9725
-24.9889
-25.0092
-25.0337
-25.0635
-25.0994
-25.1425
-25.1939
-25.2545
-25.3256
-25.4087
-25.5055
-25.6187
-25.7509
-25.9051
-26.0839
-26.2892
-26.5221
-26.783
-27.0715
-27.3861
-27.7224
-28.0709
-28.4159
-28.7358
-29.0056
-29.2011
-29.3037
-28.1781
-28.0782
-27.8939
-27.6513
-27.3787
-27.1001
-26.8317
-26.5831
-26.3576
-26.1551
-25.9745
-25.8148
-25.6753
-25.5548
-25.4519
-25.3646
-25.2906
-25.2274
-25.1729
-25.1256
-25.0843
-25.0485
-25.0177
-24.9915
-24.9697
-24.9516
-24.9369
-24.9252
-24.9162
-24.9097
-24.9058
-24.9045
-24.9056
-24.9093
-24.9156
-24.9245
-24.936
-24.9505
-24.9684
-24.9902
-25.0168
-25.0494
-25.0889
-25.1366
-25.1935
-25.2607
-25.3396
-25.4322
-25.5414
-25.6708
-25.8239
-26.004
-26.2135
-26.4542
-26.7268
-27.032
-27.3697
-27.7371
-28.125
-28.5156
-28.8831
-29.1964
-29.4247
-29.5449
-28.3786
-28.2578
-28.0367
-27.7503
-27.4352
-27.1204
-26.8242
-26.5559
-26.317
-26.1056
-25.9188
-25.755
-25.6133
-25.4927
-25.3912
-25.3065
-25.2358
-25.176
-25.1247
-25.0801
-25.0411
-25.0072
-24.9781
-24.9536
-24.9333
-24.9166
-24.903
-24.8921
-24.8837
-24.8776
-24.8738
-24.8722
-24.873
-24.8762
-24.8816
-24.8893
-24.8993
-24.9119
-24.9273
-24.9461
-24.9695
-24.9985
-25.0343
-25.0782
-25.1311
-25.1941
-25.2684
-25.3561
-25.4605
-25.5861
-25.7371
-25.9177
-26.1308
-26.3786
-26.6623
-26.9835
-27.3443
-27.7443
-28.1753
-28.6176
-29.0402
-29.4045
-29.6714
-29.8121
-28.6041
-28.4573
-28.1911
-27.8526
-27.4887
-27.134
-26.8087
-26.5209
-26.2699
-26.0506
-25.8583
-25.6908
-25.5475
-25.4271
-25.3276
-25.2463
-25.1795
-25.1237
-25.0759
-25.0342
-24.9976
-24.9656
-24.9382
-24.9154
-24.8967
-24.8815
-24.8691
-24.8591
-24.8512
-24.8454
-24.8416
-24.84
-24.8404
-24.843
-24.8476
-24.8542
-24.8627
-24.8733
-24.8861
-24.9019
-24.9218
-24.947
-24.979
-25.0189
-25.0677
-25.1264
-25.1958
-25.2778
-25.3765
-25.4971
-25.6452
-25.8253
-26.0413
-26.2956
-26.5895
-26.9254
-27.3084
-27.7419
-28.2197
-28.7203
-29.2065
-29.6305
-29.9426
-30.1069
-28.8571
-28.6784
-28.3572
-27.9565
-27.5371
-27.1391
-26.7836
-26.4775
-26.2162
-25.9906
-25.7934
-25.6226
-25.478
-25.3584
-25.2616
-25.1843
-25.1222
-25.071
-25.027
-24.9883
-24.954
-24.9239
-24.8982
-24.877
-24.86
-24.8464
-24.8352
-24.8261
-24.8189
-24.8134
-24.8096
-24.8078
-24.8079
-24.81
-24.8139
-24.8194
-24.8264
-24.835
-24.8453
-24.8579
-24.8741
-24.8954
-24.9234
-24.9592
-25.004
-25.0582
-25.1223
-25.198
-25.2898
-25.4043
-25.5483
-25.7271
-25.9452
-26.2055
-26.5084
-26.8571
-27.2606
-27.7277
-28.256
-28.8218
-29.3812
-29.8752
-30.2396
-30.4308
-29.1408
-28.923
-28.5344
-28.0599
-27.578
-27.1335
-26.7475
-26.4249
-26.1558
-25.9259
-25.7247
-25.5505
-25.4051
-25.2868
-25.1931
-25.1207
-25.0643
-25.0182
-24.9783
-24.9427
-24.9108
-24.8823
-24.8581
-24.8387
-24.8236
-24.8116
-24.8017
-24.7935
-24.7868
-24.7816
-24.7779
-24.7759
-24.7757
-24.7773
-24.7805
-24.7851
-24.7907
-24.7973
-24.805
-24.8143
-24.8266
-24.8437
-24.8676
-24.8994
-24.9401
-24.99
-25.0488
-25.1173
-25.201
-25.308
-25.4468
-25.6234
-25.8428
-26.1087
-26.4196
-26.7784
-27.1995
-27.6993
-28.2815
-28.9201
-29.5633
-30.1395
-30.5642
-30.7854
-29.4588
-29.1934
-28.7221
-28.1601
-27.6087
-27.1152
-26.699
-26.3627
-26.0892
-25.8574
-25.6525
-25.475
-25.329
-25.2124
-25.1226
-25.056
-25.006
-24.9658
-24.9302
-24.8977
-24.8681
-24.8411
-24.8182
-24.8005
-24.7874
-24.7772
-24.7687
-24.7614
-24.7553
-24.7503
-24.7465
-24.7444
-24.7438
-24.745
-24.7477
-24.7514
-24.7557
-24.7604
-24.7655
-24.7713
-24.7794
-24.7922
-24.812
-24.8397
-24.8763
-24.9223
-24.9757
-25.0362
-25.1104
-25.2085
-25.341
-25.5144
-25.7344
-26.0058
-26.3239
-26.6892
-27.1236
-27.6541
-28.2934
-29.0129
-29.7516
-30.4246
-30.9182
-31.1719
-29.815
-29.4923
-28.9193
-28.2536
-27.6264
-27.082
-26.6365
-26.2905
-26.0168
-25.786
-25.5777
-25.396
-25.2499
-25.1356
-25.05
-24.9902
-24.9478
-24.9142
-24.883
-24.8535
-24.8261
-24.8003
-24.7783
-24.7625
-24.7516
-24.7435
-24.7363
-24.7298
-24.7243
-24.7195
-24.7157
-24.7133
-24.7125
-24.7133
-24.7155
-24.7186
-24.7215
-24.7245
-24.727
-24.7291
-24.7329
-24.7411
-24.7566
-24.7803
-24.813
-24.8556
-24.9038
-24.9554
-25.0186
-25.106
-25.2313
-25.4004
-25.6201
-25.8978
-26.2225
-26.5899
-27.0318
-27.589
-28.2888
-29.0975
-29.9443
-30.7323
-31.3038
-31.5913
-30.2136
-29.8228
-29.1245
-28.3358
-27.6282
-27.0322
-26.5584
-26.2079
-25.9393
-25.7133
-25.5009
-25.3136
-25.168
-25.0564
-24.9754
-24.9237
-24.8901
-24.864
-24.8371
-24.8104
-24.7852
-24.76
-24.7386
-24.7248
-24.7163
-24.7104
-24.7046
-24.6989
-24.694
-24.6893
-24.6853
-24.6827
-24.6816
-24.6821
-24.6841
-24.6865
-24.6883
-24.6896
-24.6897
-24.688
-24.687
-24.6903
-24.7017
-24.7213
-24.7501
-24.7902
-24.8339
-24.8755
-24.9258
-25.0006
-25.118
-25.2818
-25.4998
-25.7856
-26.1174
-26.481
-26.9228
-27.5007
-28.2644
-29.1713
-30.1391
-31.0653
-31.7235
-32.044
-30.659
-30.1893
-29.3355
-28.4008
-27.6112
-26.964
-26.463
-26.1151
-25.8578
-25.6411
-25.4228
-25.2275
-25.0836
-24.9751
-24.8987
-24.8567
-24.8331
-24.8155
-24.7926
-24.7684
-24.7455
-24.7203
-24.6989
-24.6872
-24.6816
-24.6783
-24.6737
-24.6687
-24.6644
-24.6597
-24.6555
-24.6527
-24.6513
-24.6514
-24.6534
-24.6555
-24.6561
-24.6559
-24.6538
-24.6479
-24.6419
-24.6398
-24.6472
-24.6628
-24.6875
-24.7265
-24.7669
-24.7972
-24.8326
-24.8924
-25.0014
-25.159
-25.3732
-25.6702
-26.0112
-26.3636
-26.7957
-27.3854
-28.2172
-29.2317
-30.3321
-31.4276
-32.1803
-32.5296
-31.1555
-30.5973
-29.5494
-28.441
-27.5733
-26.8765
-26.3484
-26.0122
-25.7734
-25.5718
-25.3443
-25.1371
-24.9971
-24.8921
-24.8197
-24.7893
-24.7773
-24.7695
-24.7498
-24.7275
-24.7075
-24.6812
-24.6589
-24.6499
-24.6476
-24.6473
-24.6436
-24.6393
-24.6356
-24.6308
-24.6263
-24.6233
-24.6216
-24.6214
-24.6235
-24.6255
-24.6248
-24.6235
-24.6195
-24.6091
-24.5976
-24.5896
-24.5934
-24.605
-24.625
-24.6649
-24.7039
-24.721
-24.7392
-24.7809
-24.8822
-25.0325
-25.2392
-25.5528
-25.9074
-26.2389
-26.6501
-27.2384
-28.1442
-29.2763
-30.5173
-31.8255
-32.6777
-33.0467
-31.7073
-31.0547
-29.7623
-28.4462
-27.5132
-26.7693
-26.2121
-25.9001
-25.6872
-25.5087
-25.266
-25.0409
-24.9092
-24.8079
-24.738
-24.722
-24.7229
-24.7267
-24.7087
-24.6877
-24.6715
-24.6429
-24.6184
-24.6128
-24.6143
-24.6176
-24.6146
-24.6105
-24.6079
-24.6027
-24.5977
-24.5945
-24.5924
-24.5918
-24.5944
-24.5968
-24.5945
-24.5924
-24.5871
-24.5717
-24.5543
-24.5395
-24.5404
-24.5481
-24.5621
-24.6056
-24.6462
-24.6475
-24.6463
-24.6658
-24.761
-24.9034
-25.096
-25.4344
-25.8109
-26.1083
-26.486
-27.0539
-28.0429
-29.3036
-30.6852
-32.2685
-33.2199
-33.592
-32.3172
-31.5724
-29.9688
-28.403
-27.4316
-26.6429
-26.0506
-25.7801
-25.6001
-25.456
-25.1886
-24.9369
-24.8209
-24.7229
-24.6528
-24.655
-24.6701
-24.6881
-24.6695
-24.6486
-24.6383
-24.6053
-24.5769
-24.5761
-24.5819
-24.5896
-24.5865
-24.5824
-24.5812
-24.5754
-24.5697
-24.5664
-24.564
-24.5628
-24.5662
-24.5694
-24.5652
-24.5627
-24.557
-24.5359
-24.5121
-24.4892
-24.4884
-24.4925
-24.4978
-24.549
-24.5955
-24.5771
-24.5545
-24.5457
-24.6387
-24.7732
-24.9404
-25.3161
-25.7281
-25.9729
-26.3049
-26.8242
-27.9116
-29.3143
-30.8205
-32.7715
-33.8112
-34.1606
-32.9862
-32.1662
-30.162
-28.2935
-27.3322
-26.4991
-25.859
-25.6545
-25.5125
-25.4195
-25.1124
-24.8216
-24.734
-24.6382
-24.5626
-24.5892
-24.619
-24.6551
-24.6319
-24.6097
-24.6089
-24.5685
-24.5337
-24.5399
-24.5503
-24.5637
-24.5594
-24.555
-24.5559
-24.5489
-24.5423
-24.5391
-24.5363
-24.5341
-24.539
-24.5438
-24.5366
-24.5343
-24.5297
-24.5015
-24.4714
-24.4383
-24.4378
-24.4389
-24.4308
-24.495
-24.5542
-24.5101
-24.4647
-24.4189
-24.5167
-24.6445
-24.7674
-25.1985
-25.6677
-25.8332
-26.1097
-26.5391
-27.7494
-29.3124
-30.8991
-33.3569
-34.4562
-34.7448
-33.7126
-32.8584
-30.3325
-28.0935
-27.2232
-26.341
-25.6298
-25.5275
-25.4234
-25.4068
-25.0377
-24.6898
-24.6515
-24.5548
-24.4655
-24.5256
-24.5693
-24.6295
-24.5957
-24.5701
-24.5846
-24.5325
-24.4879
-24.5045
-24.5196
-24.5405
-24.5333
-24.5279
-24.5322
-24.5233
-24.5155
-24.5127
-24.5096
-24.5057
-24.5126
-24.5204
-24.5084
-24.5071
-24.5058
-24.4686
-24.4325
-24.3859
-24.389
-24.3883
-24.3589
-24.4437
-24.5252
-24.4458
-24.3787
-24.2823
-24.3965
-24.5217
-24.5694
-25.0818
-25.6415
-25.6878
-25.9065
-26.1843
-27.5569
-29.3076
-30.8832
-34.0592
-35.1585
-35.3341
-34.4898
-33.6809
-30.468
-27.7709
-27.1196
-26.1731
-25.3521
-25.406
-25.3296
-25.4282
-24.9641
-24.5339
-24.5779
-24.4741
-24.358
-24.4661
-24.5199
-24.6138
-24.5601
-24.5281
-24.5675
-24.4971
-24.438
-24.4706
-24.4895
-24.5208
-24.508
-24.5008
-24.5107
-24.4985
-24.4891
-24.4872
-24.4838
-24.4773
-24.4871
-24.4996
-24.4803
-24.4809
-24.4861
-24.4368
-24.3961
-24.3308
-24.3425
-24.3424
-24.279
-24.3948
-24.5127
-24.3831
-24.2989
-24.1313
-24.2803
-24.4113
-24.3354
-24.9656
-25.6655
-25.5321
-25.7061
-25.7397
-27.3362
-29.3193
-30.715
-34.9299
-35.9192
-35.9149
-35.3048
-34.6786
-30.5524
-27.2829
-27.0457
-26.0011
-25.0095
-25.3008
-25.2246
-25.4979
-24.8905
-24.3431
-24.5203
-24.3977
-24.2354
-24.4138
-24.4691
-24.6115
-24.5239
-24.4816
-24.5606
-24.462
-24.382
-24.4392
-24.4593
-24.5057
-24.4831
-24.4732
-24.4918
-24.4744
-24.4631
-24.4627
-24.4592
-24.4485
-24.4623
-24.4823
-24.4515
-24.4552
-24.4719
-24.4054
-24.3632
-24.2711
-24.2988
-24.3038
-24.1866
-24.3476
-24.5223
-24.3189
-24.2297
-23.959
-24.1705
-24.3236
-24.0494
-24.8481
-25.7613
-25.3562
-25.5263
-25.1771
-27.0909
-29.3814
-30.3076
-36.0452
-36.7346
-36.4704
-36.1352
-35.9136
-30.5643
-26.5728
-27.0391
-25.8321
-24.5787
-25.2292
-25.096
-25.6349
-24.8151
-24.1022
-24.4888
-24.3275
-24.0906
-24.3732
-24.4132
-24.6275
-24.4854
-24.4271
-24.5679
-24.4267
-24.3172
-24.4118
-24.4281
-24.4964
-24.4579
-24.4442
-24.4763
-24.4505
-24.437
-24.4393
-24.436
-24.4187
-24.4378
-24.4696
-24.4208
-24.4293
-24.4648
-24.3731
-24.3355
-24.2042
-24.2586
-24.2764
-24.0757
-24.3011
-24.5615
-24.2482
-24.1777
-23.7552
-24.07
-24.2735
-23.6897
-24.7264
-25.9583
-25.1419
-25.3953
-24.4573
-26.8255
-29.5492
-29.533
-37.5161
-37.5917
-36.9806
-36.9464
-37.471
-30.476
-25.5665
-27.1547
-25.6736
-24.0269
-25.2176
-24.9238
-25.8654
-24.7349
-23.791
-24.4985
-24.2657
-23.9136
-24.3519
-24.3468
-24.6687
-24.4422
-24.3601
-24.5953
-24.3903
-24.2399
-24.3909
-24.3941
-24.4951
-24.4317
-24.4128
-24.4654
-24.4264
-24.4105
-24.417
-24.4144
-24.3872
-24.4131
-24.4629
-24.387
-24.4022
-24.4669
-24.338
-24.3155
-24.1261
-24.2225
-24.2658
-23.938
-24.2538
-24.6407
-24.1626
-24.1533
-23.5059
-23.9816
-24.2828
-23.2265
-24.5954
-26.2966
-24.8585
-25.3565
-23.5261
-26.5452
-29.9094
-28.2066
-39.5021
-38.4627
-37.4239
-37.6881
-39.4649
-30.2517
-24.1679
-27.4701
-25.5327
-23.3087
-25.3054
-24.6763
-26.2244
-24.6455
-23.3823
-24.5703
-24.2142
-23.6911
-24.3608
-24.2611
-24.7445
-24.3909
-24.2744
-24.6506
-24.3515
-24.1454
-24.3805
-24.3548
-24.5045
-24.4033
-24.3777
-24.4607
-24.4015
-24.3834
-24.3959
-24.3952
-24.3532
-24.3875
-24.4646
-24.3482
-24.3727
-24.4815
-24.297
-24.3071
-24.0321
-24.1911
-24.2801
-23.7629
-24.2035
-24.7741
-24.0491
-24.1724
-23.1919
-23.9085
-24.3823
-22.6206
-24.4477
-26.8304
-24.4579
-25.4746
-22.3099
-26.2536
-30.5922
-26.0676
-42.2278
-39.297
-37.7782
-38.2895
-42.0461
-29.8454
-22.2543
-28.0923
-25.4157
-22.3628
-25.55
-24.3065
-26.7596
-24.5407
-22.841
-24.7336
-24.1753
-23.4051
-24.4163
-24.1436
-24.8683
-24.3273
-24.1622
-24.745
-24.3087
-24.028
-24.3865
-24.3064
-24.5288
-24.3716
-24.3374
-24.465
-24.3751
-24.3556
-24.3766
-24.3792
-24.3159
-24.3604
-24.4782
-24.3024
-24.3393
-24.5135
-24.2459
-24.3166
-23.9154
-24.1655
-24.3309
-23.5366
-24.1474
-24.9813
-23.8887
-24.2581
-22.7875
-23.8535
-24.6142
-21.8209
-24.2724
-27.6325
-23.8676
-25.8432
-20.7107
-25.9505
-31.7872
-22.7549
-46.0046
-40.0101
-38.0238
-38.6551
-45.4099
-29.1982
-19.6703
-29.1642
-25.3249
-21.1082
-26.0317
-23.746
-27.5334
-24.4113
-22.1217
-25.027
-24.15
-23.0316
-24.5412
-23.9752
-25.0576
-24.2453
-24.013
-24.8923
-24.2589
-23.8797
-24.4166
-24.2432
-24.5733
-24.3342
-24.2897
-24.4812
-24.3459
-24.3265
-24.359
-24.3676
-24.2742
-24.3303
-24.5075
-24.2466
-24.2995
-24.5688
-24.178
-24.352
-23.7673
-24.1456
-24.4333
-23.2413
-24.0812
-25.2873
-23.6534
-24.443
-22.2584
-23.818
-25.0352
-20.7617
-24.0538
-28.7992
-22.9818
-26.5933
-18.5992
-25.6272
-33.7622
-17.7777
-51.2559
-40.4695
-38.1469
)
;

boundaryField
{
    left
    {
        type            calculated;
        value           nonuniform List<scalar> 
32
(
-27.1516
-27.1684
-27.2009
-27.2481
-27.3096
-27.3854
-27.4758
-27.5815
-27.7032
-27.8422
-27.9999
-28.1781
-28.3786
-28.6041
-28.8571
-29.1408
-29.4588
-29.815
-30.2136
-30.659
-31.1555
-31.7073
-32.3172
-32.9862
-33.7126
-34.4898
-35.3048
-36.1352
-36.9464
-37.6881
-38.2895
-38.6551
)
;
    }
    right
    {
        type            calculated;
        value           nonuniform List<scalar> 
32
(
-28.1046
-28.1292
-28.1766
-28.2453
-28.3344
-28.4436
-28.5729
-28.7228
-28.8939
-29.0872
-29.3037
-29.5449
-29.8121
-30.1069
-30.4308
-30.7854
-31.1719
-31.5913
-32.044
-32.5296
-33.0467
-33.592
-34.1606
-34.7448
-35.3341
-35.9149
-36.4704
-36.9806
-37.4239
-37.7782
-38.0238
-38.1469
)
;
    }
    interface
    {
        type            calculated;
        value           nonuniform List<scalar> 
64
(
-38.7653
-47.315
-28.8061
-18.189
-29.8328
-25.2861
-20.392
-26.3436
-23.4079
-27.9888
-24.3391
-21.7111
-25.2117
-24.1407
-22.8195
-24.6242
-23.8755
-25.1711
-24.1988
-23.9275
-24.981
-24.2318
-23.7967
-24.4388
-24.2069
-24.6013
-24.3138
-24.2636
-24.4926
-24.3303
-24.3116
-24.3506
-24.3629
-24.2519
-24.3142
-24.5265
-24.2157
-24.2777
-24.603
-24.1388
-24.3772
-23.684
-24.137
-24.4993
-23.0738
-24.0448
-25.4686
-23.5129
-24.5649
-21.9577
-23.8051
-25.3008
-20.158
-23.9313
-29.4873
-22.4494
-27.0828
-17.397
-25.4587
-34.9836
-14.8026
-54.3109
-40.6157
-38.1766
)
;
    }
    bottom
    {
        type            calculated;
        value           nonuniform List<scalar> 
64
(
-27.1472
-27.1245
-27.0802
-27.0161
-26.9351
-26.8401
-26.7346
-26.6219
-26.5051
-26.3871
-26.2701
-26.1562
-26.0469
-25.9432
-25.8461
-25.7558
-25.6728
-25.5969
-25.5281
-25.4662
-25.4109
-25.3619
-25.3189
-25.2815
-25.2495
-25.2225
-25.2005
-25.183
-25.17
-25.1615
-25.1572
-25.1573
-25.1618
-25.1707
-25.1842
-25.2026
-25.2262
-25.2552
-25.2901
-25.3314
-25.3795
-25.4351
-25.4986
-25.5707
-25.6519
-25.7428
-25.8438
-25.9552
-26.0773
-26.21
-26.3528
-26.5051
-26.6655
-26.8323
-27.0031
-27.1751
-27.3447
-27.5077
-27.6597
-27.7959
-27.9118
-28.003
-28.066
-28.0982
)
;
    }
    defaultFaces
    {
        type            empty;
    }
}


// ************************************************************************* //
