/*--------------------------------*- C++ -*----------------------------------*\
| =========                 |                                                 |
| \\      /  F ield         | OpenFOAM: The Open Source CFD Toolbox           |
|  \\    /   O peration     | Version:  5.x                                   |
|   \\  /    A nd           | Web:      www.OpenFOAM.org                      |
|    \\/     M anipulation  |                                                 |
\*---------------------------------------------------------------------------*/
FoamFile
{
    version     2.0;
    format      ascii;
    class       volScalarField;
    location    "0.4";
    object      gradTx;
}
// * * * * * * * * * * * * * * * * * * * * * * * * * * * * * * * * * * * * * //

dimensions      [0 -1 0 1 0 0 0];

internalField   nonuniform List<scalar> 
2048
(
0.00521714
0.0154053
0.0249151
0.033366
0.0404701
0.046085
0.0501631
0.0527543
0.0539851
0.0540273
0.0530744
0.0513239
0.0489646
0.0461685
0.0430855
0.0398414
0.0365377
0.033252
0.0300409
0.026942
0.0239778
0.021159
0.0184868
0.015956
0.0135562
0.0112735
0.00909102
0.00698976
0.00494891
0.00294625
0.000958354
-0.00103921
-0.00307185
-0.00516584
-0.00734831
-0.009647
-0.0120899
-0.0147046
-0.0175176
-0.0205529
-0.023831
-0.0273673
-0.0311701
-0.0352392
-0.0395626
-0.044114
-0.0488484
-0.0536983
-0.0585689
-0.0633341
-0.0678338
-0.0718732
-0.0752245
-0.0776319
-0.0788214
-0.0785151
-0.0764524
-0.0724165
-0.0662657
-0.057965
-0.0476124
-0.0354532
-0.0218773
-0.00739624
0.0156239
0.0461176
0.0745389
0.099751
0.12089
0.137526
0.149538
0.157096
0.160595
0.16056
0.15758
0.152248
0.145131
0.136741
0.127522
0.117847
0.108015
0.0982545
0.0887292
0.0795485
0.0707761
0.0624408
0.0545446
0.0470703
0.0399865
0.0332511
0.0268139
0.0206182
0.0146023
0.00870034
0.00284284
-0.00304246
-0.0090307
-0.0151997
-0.0216297
-0.028403
-0.0356031
-0.0433121
-0.0516091
-0.0605665
-0.0702459
-0.0806941
-0.0919379
-0.103978
-0.116782
-0.130275
-0.144329
-0.158746
-0.17325
-0.18747
-0.200935
-0.213065
-0.223184
-0.230528
-0.234274
-0.233583
-0.227664
-0.215849
-0.197693
-0.17307
-0.14226
-0.105989
-0.0654291
-0.022125
0.0261284
0.0770806
0.124452
0.16632
0.201238
0.228506
0.247974
0.259989
0.265261
0.26471
0.259341
0.250158
0.238103
0.224024
0.208655
0.192603
0.176353
0.160274
0.144626
0.129579
0.115228
0.101613
0.0887319
0.0765515
0.0650176
0.0540596
0.0435939
0.0335271
0.0237573
0.0141763
0.00467053
-0.0048783
-0.0145929
-0.0246005
-0.0350327
-0.0460249
-0.0577144
-0.070238
-0.0837276
-0.0983043
-0.114073
-0.131113
-0.149475
-0.169165
-0.190139
-0.212284
-0.2354
-0.259178
-0.283177
-0.306799
-0.329275
-0.349657
-0.366826
-0.379513
-0.386337
-0.385878
-0.376772
-0.35785
-0.328304
-0.287858
-0.236927
-0.176705
-0.109165
-0.0369297
0.0370387
0.10919
0.176043
0.234802
0.28342
0.320959
0.347319
0.363111
0.369449
0.367711
0.359364
0.345844
0.32848
0.308453
0.286778
0.264289
0.241646
0.219341
0.197717
0.176989
0.157273
0.138607
0.120977
0.10433
0.0885861
0.0736439
0.0593868
0.0456844
0.0323959
0.0193715
0.00645492
-0.00651622
-0.0197102
-0.0333015
-0.0474713
-0.0624067
-0.078299
-0.0953398
-0.113715
-0.133597
-0.155137
-0.178453
-0.203621
-0.230663
-0.259532
-0.290092
-0.322093
-0.355133
-0.388629
-0.421776
-0.453527
-0.482577
-0.507369
-0.526119
-0.536869
-0.537571
-0.526223
-0.50106
-0.460804
-0.404932
-0.333924
-0.249424
-0.154253
-0.0522127
0.0486443
0.143273
0.230567
0.30673
0.369085
0.416513
0.449078
0.467787
0.474278
0.47048
0.458377
0.439868
0.416677
0.39032
0.362084
0.333019
0.303946
0.275467
0.247987
0.221749
0.196872
0.173381
0.151239
0.130367
0.110655
0.0919715
0.0741662
0.0570717
0.0405079
0.0242848
0.00820439
-0.00793785
-0.0243536
-0.0412623
-0.0588929
-0.0774831
-0.0972783
-0.118526
-0.14147
-0.166337
-0.193326
-0.2226
-0.254268
-0.288376
-0.324886
-0.363659
-0.404415
-0.446687
-0.489778
-0.532702
-0.574152
-0.612478
-0.645688
-0.671477
-0.687276
-0.690352
-0.677971
-0.647643
-0.597467
-0.526527
-0.43527
-0.325759
-0.201736
-0.0683345
0.0612305
0.180135
0.289226
0.383531
0.459717
0.516573
0.55449
0.575052
0.58058
0.573664
0.556874
0.532595
0.502954
0.469795
0.434672
0.398841
0.363267
0.328643
0.295417
0.263837
0.234005
0.205915
0.179498
0.154642
0.131207
0.109028
0.0879206
0.0676807
0.0480892
0.0289161
0.00992308
-0.00913482
-0.02851
-0.0484645
-0.0692726
-0.0912218
-0.114612
-0.139749
-0.166936
-0.196459
-0.228574
-0.263489
-0.301354
-0.342245
-0.386152
-0.432947
-0.482349
-0.533862
-0.586703
-0.639737
-0.691421
-0.739773
-0.782372
-0.816378
-0.838584
-0.84551
-0.833575
-0.799399
-0.740256
-0.654637
-0.542808
-0.407208
-0.252593
-0.0856351
0.0750932
0.220608
0.353229
0.466597
0.5567
0.622374
0.664571
0.68569
0.688932
0.677679
0.655144
0.624219
0.587432
0.546946
0.504569
0.461751
0.419589
0.378846
0.339987
0.303241
0.268665
0.236209
0.205756
0.177159
0.150243
0.124813
0.10065
0.0775121
0.055141
0.0332667
0.0116118
-0.0101068
-0.0321796
-0.0549079
-0.0786086
-0.103618
-0.13029
-0.158992
-0.190092
-0.223941
-0.260853
-0.301091
-0.344848
-0.39224
-0.443294
-0.497918
-0.555859
-0.616628
-0.6794
-0.742926
-0.80545
-0.864675
-0.917755
-0.961316
-0.991491
-1.00399
-0.994263
-0.95784
-0.89091
-0.791098
-0.658287
-0.495224
-0.307783
-0.10445
0.0905529
0.26558
0.423843
0.557329
0.661352
0.735014
0.78014
0.800258
0.799685
0.78273
0.753302
0.714799
0.670129
0.621757
0.571737
0.521701
0.472865
0.426039
0.381676
0.339955
0.300862
0.264278
0.230033
0.197935
0.167779
0.13934
0.112364
0.0865736
0.0616685
0.0373389
0.0132691
-0.01086
-0.0353731
-0.060607
-0.086918
-0.114689
-0.144329
-0.17627
-0.210949
-0.248789
-0.29017
-0.335412
-0.384755
-0.43836
-0.4963
-0.558541
-0.624893
-0.694918
-0.767801
-0.842214
-0.916221
-0.987224
-1.05196
-1.10654
-1.1464
-1.16643
-1.16097
-1.12424
-1.05099
-0.937652
-0.783425
-0.59126
-0.368281
-0.125122
0.107968
0.316034
0.502432
0.657176
0.774958
0.855467
0.901832
0.919098
0.912976
0.888839
0.851316
0.804278
0.750974
0.694151
0.636093
0.578613
0.52303
0.470179
0.420469
0.373988
0.330622
0.29016
0.252365
0.217003
0.183842
0.15263
0.123081
0.094879
0.0676814
0.0411369
0.0148922
-0.0114049
-0.0381095
-0.0655885
-0.0942333
-0.12447
-0.156765
-0.191617
-0.22954
-0.271035
-0.316557
-0.366484
-0.421107
-0.48063
-0.545178
-0.614795
-0.689393
-0.768639
-0.851784
-0.937474
-1.02362
-1.10733
-1.18495
-1.25206
-1.30347
-1.33319
-1.33437
-1.29964
-1.22194
-1.09599
-0.91995
-0.696814
-0.435096
-0.148005
0.127746
0.373079
0.590497
0.767662
0.898779
0.984588
1.03009
1.04234
1.02874
0.995862
0.949032
0.892515
0.829841
0.764006
0.697524
0.632384
0.570005
0.511221
0.456355
0.405361
0.357986
0.313905
0.272803
0.234407
0.198467
0.164711
0.132825
0.102447
0.0731928
0.0446665
0.0164778
-0.0117558
-0.0404143
-0.0698888
-0.1006
-0.133014
-0.167652
-0.205087
-0.245916
-0.290731
-0.340067
-0.394367
-0.453965
-0.519103
-0.589963
-0.666678
-0.749303
-0.837679
-0.931193
-1.02852
-1.12744
-1.2248
-1.31653
-1.39772
-1.46261
-1.50435
-1.51486
-1.48489
-1.40505
-1.26777
-1.06964
-0.813449
-0.509292
-0.173476
0.150362
0.437986
0.689713
0.890408
1.03405
1.1231
1.16517
1.16988
1.14672
1.10351
1.0462
0.979308
0.906561
0.831176
0.755895
0.682899
0.613706
0.549123
0.489336
0.434112
0.383018
0.335585
0.291414
0.250202
0.211697
0.175619
0.141623
0.109302
0.0782196
0.0479358
0.0180229
-0.0119287
-0.0423177
-0.0735517
-0.106072
-0.140382
-0.177058
-0.216748
-0.260146
-0.307944
-0.360773
-0.419139
-0.483413
-0.553863
-0.630717
-0.714209
-0.804579
-0.901919
-1.00585
-1.11513
-1.22745
-1.33936
-1.44641
-1.54322
-1.6235
-1.67974
-1.70258
-1.68063
-1.60155
-1.45467
-1.23434
-0.942825
-0.591995
-0.201929
0.176369
0.512224
0.801967
1.02715
1.18198
1.27158
1.3071
1.30142
1.26646
1.21136
1.1425
1.06443
0.980953
0.895502
0.811063
0.730036
0.654046
0.583847
0.519426
0.460297
0.405797
0.355287
0.308277
0.264451
0.22358
0.185392
0.149508
0.11547
0.0827819
0.0509554
0.0195256
-0.0119405
-0.0438531
-0.076627
-0.110715
-0.146649
-0.185062
-0.226681
-0.272308
-0.322754
-0.378759
-0.440896
-0.509559
-0.585022
-0.667537
-0.757438
-0.85519
-0.961242
-1.07556
-1.19707
-1.32336
-1.45071
-1.57422
-1.68809
-1.78565
-1.85892
-1.8974
-1.88728
-1.81251
-1.65836
-1.416
-1.08671
-0.684397
-0.233776
0.206413
0.597503
0.929396
1.17974
1.34373
1.43044
1.45569
1.43641
1.38734
1.31891
1.23757
1.14763
1.05284
0.95683
0.862885
0.773667
0.690938
0.615365
0.546657
0.483992
0.426425
0.373118
0.323482
0.27722
0.234165
0.194068
0.156517
0.120981
0.0869031
0.0537388
0.0209857
-0.0118082
-0.0450562
-0.0791687
-0.114599
-0.151897
-0.19175
-0.234975
-0.282488
-0.335247
-0.394118
-0.459749
-0.532533
-0.612719
-0.700554
-0.796448
-0.90113
-1.01553
-1.14012
-1.27408
-1.4149
-1.55852
-1.69959
-1.83184
-1.94839
-2.04118
-2.09889
-2.10503
-2.03895
-1.88055
-1.61668
-1.24699
-0.787744
-0.269439
0.241254
0.695817
1.07444
1.35015
1.52036
1.59988
1.61049
1.57407
1.50856
1.42554
1.33107
1.22871
1.12205
1.01502
0.911223
0.813667
0.724298
0.64366
0.571078
0.505293
0.445024
0.3892
0.337132
0.288581
0.243499
0.201689
0.162685
0.12587
0.0906095
0.0563021
0.022405
-0.0115478
-0.045963
-0.0812339
-0.117797
-0.156212
-0.19722
-0.241727
-0.29078
-0.345511
-0.406949
-0.475816
-0.552481
-0.63712
-0.729937
-0.831363
-0.942418
-1.06468
-1.19933
-1.34591
-1.50179
-1.66248
-1.82213
-1.97391
-2.11089
-2.22556
-2.30632
-2.33384
-2.28175
-2.12298
-1.83862
-1.42571
-0.903316
-0.309332
0.281773
0.809491
1.23986
1.54047
1.71284
1.77987
1.77082
1.71337
1.62915
1.53061
1.42265
1.30748
1.18847
1.06995
0.955948
0.849907
0.754042
0.668728
0.592762
0.524316
0.461733
0.403676
0.349336
0.298601
0.251628
0.208291
0.168053
0.130172
0.0939305
0.0586644
0.0237877
-0.0111741
-0.0466098
-0.0828815
-0.120389
-0.159687
-0.20157
-0.247039
-0.297279
-0.353637
-0.41735
-0.489225
-0.569562
-0.658417
-0.755893
-0.862356
-0.979105
-1.10859
-1.25299
-1.41233
-1.58378
-1.76231
-1.94149
-2.11375
-2.27221
-2.41082
-2.51861
-2.57338
-2.54166
-2.38743
-2.08419
-1.62502
-1.03239
-0.353834
0.328981
0.94123
1.42885
1.75288
1.92191
1.97013
1.9357
1.85306
1.74801
1.63345
1.51207
1.38385
1.25198
1.12152
0.996945
0.882261
0.780086
0.690578
0.611802
0.541198
0.476713
0.416706
0.360213
0.307346
0.258586
0.213911
0.172662
0.133927
0.0968974
0.060848
0.0251409
-0.0106996
-0.0470313
-0.0841713
-0.122458
-0.162416
-0.204906
-0.25102
-0.302083
-0.359711
-0.425416
-0.500104
-0.583948
-0.676818
-0.77867
-0.889652
-1.01127
-1.14716
-1.30088
-1.4731
-1.66063
-1.85777
-2.05742
-2.2509
-2.43133
-2.59542
-2.73431
-2.82305
-2.81933
-2.67567
-2.35598
-1.8473
-1.17618
-0.403244
0.384016
1.09417
1.64507
1.98962
2.14805
2.17011
2.1039
1.99162
1.86386
1.7334
1.59919
1.45779
1.31254
1.16968
1.03412
0.910594
0.802344
0.709237
0.628324
0.556093
0.490137
0.428468
0.369884
0.314871
0.264401
0.218582
0.176558
0.137175
0.0995437
0.0628779
0.0264739
-0.0101349
-0.0472603
-0.0851631
-0.124085
-0.164497
-0.207334
-0.253785
-0.305292
-0.363813
-0.431234
-0.508581
-0.595815
-0.692542
-0.798556
-0.91354
-1.03904
-1.18029
-1.34279
-1.52802
-1.73218
-1.94864
-2.16976
-2.38502
-2.58718
-2.77755
-2.95158
-3.08194
-3.11526
-2.98951
-2.65686
-2.09508
-1.33574
-0.45772
0.448115
1.27193
1.89275
2.25291
2.39136
2.37895
2.27397
2.12732
1.97533
1.82985
1.68405
1.52938
1.37009
1.2144
1.06738
0.934762
0.820723
0.724749
0.642482
0.569166
0.502191
0.439166
0.37848
0.321215
0.269082
0.222333
0.179791
0.13996
0.101903
0.0647826
0.0277988
-0.00948788
-0.0473263
-0.0859159
-0.125358
-0.166022
-0.208964
-0.255456
-0.307005
-0.366014
-0.43488
-0.514783
-0.605344
-0.705809
-0.815872
-0.934386
-1.06257
-1.20787
-1.37848
-1.57691
-1.79829
-2.03476
-2.27849
-2.51602
-2.73869
-2.95511
-3.16814
-3.34885
-3.42987
-3.33067
-2.98999
-2.37121
-1.51183
-0.517188
0.522554
1.47863
2.17684
2.54488
2.65139
2.59556
2.44425
2.25818
2.08088
1.92227
1.76693
1.59879
1.42459
1.25571
1.09669
0.954602
0.835115
0.73718
0.654476
0.580589
0.513065
0.44903
0.386132
0.326398
0.272625
0.225193
0.182423
0.142326
0.104009
0.0665939
0.0291297
-0.00876488
-0.047254
-0.0864873
-0.126365
-0.167084
-0.2099
-0.256164
-0.307324
-0.366372
-0.436412
-0.518835
-0.612722
-0.716823
-0.830973
-0.952652
-1.08205
-1.22976
-1.40768
-1.61962
-1.85889
-2.11592
-2.38371
-2.64412
-2.88486
-3.12566
-3.38123
-3.62225
-3.76346
-3.7007
-3.35894
-2.67888
-1.7047
-0.581222
0.608527
1.71896
2.50321
2.86746
2.92698
2.81866
2.61292
2.382
2.17885
2.01023
1.84842
1.66629
1.47593
1.29367
1.12201
0.969922
0.845394
0.74662
0.664556
0.590525
0.522945
0.458329
0.392974
0.330412
0.275001
0.227187
0.184524
0.144317
0.105891
0.0683482
0.0304825
-0.00797082
-0.0470623
-0.0869327
-0.127198
-0.167768
-0.210244
-0.256056
-0.306353
-0.36493
-0.435868
-0.52086
-0.618142
-0.725754
-0.844236
-0.968916
-1.09774
-1.24578
-1.43007
-1.65605
-1.91402
-2.19187
-2.48569
-2.77
-3.02477
-3.28646
-3.58755
-3.90035
-4.11633
-4.10081
-3.7678
-3.02184
-1.91387
-0.648885
0.706948
1.99811
2.87893
3.22213
3.21599
3.04689
2.77812
2.49633
2.26744
2.09343
1.92954
1.7322
1.5239
1.32848
1.14334
0.980485
0.851404
0.753188
0.673045
0.599112
0.532
0.467386
0.39914
0.333209
0.276159
0.228345
0.186189
0.145973
0.107574
0.0700879
0.0318734
-0.00711075
-0.0467616
-0.0873041
-0.127957
-0.168147
-0.210086
-0.255295
-0.304199
-0.361712
-0.433261
-0.52098
-0.621811
-0.732709
-0.856045
-0.983912
-1.10992
-1.25571
-1.44527
-1.68615
-1.96384
-2.26221
-2.58477
-2.89498
-3.15766
-3.43441
-3.78322
-4.18107
-4.48894
-4.53157
-4.22132
-3.40465
-2.13767
-0.718539
0.818134
2.32183
3.31265
3.60973
3.51497
3.27908
2.938
2.59846
2.34469
2.1717
2.01185
1.79684
1.5681
1.36043
1.16075
0.985992
0.852954
0.757033
0.680366
0.606439
0.540366
0.476599
0.40476
0.334693
0.276023
0.228698
0.187537
0.147325
0.109074
0.0718649
0.033318
-0.00619204
-0.046351
-0.0876489
-0.128756
-0.16828
-0.2095
-0.254078
-0.300972
-0.356723
-0.428565
-0.519322
-0.623975
-0.737693
-0.866771
-0.998577
-1.1189
-1.25922
-1.45279
-1.70994
-2.00873
-2.32625
-2.68134
-3.0212
-3.28292
-3.56607
-3.96369
-4.46209
-4.88207
-4.9924
-4.72514
-3.83309
-2.37276
-0.787629
0.941321
2.69628
3.81523
4.03005
3.81881
3.51459
3.09078
2.68539
2.40847
2.24499
2.09765
1.8605
1.60778
1.39007
1.17432
0.986054
0.849809
0.758335
0.687079
0.612507
0.548124
0.486476
0.40995
0.334706
0.274488
0.228281
0.188728
0.14839
0.11039
0.0737455
0.0348287
-0.00522755
-0.0458146
-0.0880073
-0.129729
-0.168205
-0.20853
-0.252639
-0.29679
-0.349943
-0.421714
-0.516016
-0.624941
-0.740568
-0.876741
-1.01412
-1.12503
-1.25592
-1.45202
-1.72751
-2.04938
-2.38284
-2.77573
-3.1519
-3.40013
-3.67762
-4.12367
-4.74087
-5.29731
-5.48095
-5.28604
-4.31477
-2.61339
-0.852453
1.07398
3.12794
4.40047
4.48138
4.12019
3.75378
3.23485
2.75376
2.45646
2.31331
2.19018
1.92328
1.64178
1.41826
1.18419
0.980163
0.841687
0.757297
0.693935
0.617184
0.555274
0.497687
0.414803
0.333015
0.27143
0.227136
0.18998
0.149157
0.111507
0.075818
0.0364123
-0.00424017
-0.0451162
-0.0884091
-0.131041
-0.16793
-0.207179
-0.251276
-0.29177
-0.341331
-0.412586
-0.511199
-0.625131
-0.740989
-0.88619
-1.03209
-1.12864
-1.24529
-1.44218
-1.73903
-2.087
-2.43018
-2.86805
-3.2918
-3.50894
-3.76492
-4.25698
-5.01461
-5.73764
-5.99203
-5.91229
-4.85991
-2.85044
-0.907969
1.21085
3.62341
5.08623
4.95983
4.40904
3.99879
3.3687
2.79982
2.48615
2.37663
2.29397
1.98494
1.66825
1.44642
1.19053
0.967661
0.828256
0.754133
0.701959
0.620135
0.5617
0.511124
0.419364
0.329292
0.266702
0.225308
0.191586
0.149571
0.112381
0.0782035
0.0380651
-0.00326887
-0.044193
-0.0888675
-0.132911
-0.167427
-0.205388
-0.25037
-0.286031
-0.330824
-0.400991
-0.505005
-0.625147
-0.738332
-0.895203
-1.05456
-1.13002
-1.2267
-1.42228
-1.74471
-2.12358
-2.46554
-2.95792
-3.44754
-3.60901
-3.82357
-4.3565
-5.28015
-6.20841
-6.51621
-6.6141
-5.48254
-3.07007
-0.947683
1.34267
4.18909
5.89577
5.45849
4.67176
4.25449
3.49086
2.81927
2.49489
2.43468
2.41521
2.04474
1.68446
1.47671
1.19345
0.947691
0.809152
0.749033
0.712546
0.62074
0.567128
0.527995
0.423595
0.323103
0.260156
0.222839
0.193941
0.149516
0.112938
0.0810712
0.0397674
-0.00237646
-0.0429479
-0.0893709
-0.135628
-0.166623
-0.20301
-0.250419
-0.279676
-0.318343
-0.386653
-0.497552
-0.62587
-0.731608
-0.903629
-1.08421
-1.12935
-1.19942
-1.39103
-1.74477
-2.16221
-2.4849
-3.04423
-3.62831
-3.69968
-3.84898
-4.41401
-5.53376
-6.71873
-7.03786
-7.40421
-6.2019
-3.25209
-0.963709
1.45451
4.83086
6.85961
5.96634
4.89042
4.52975
3.59963
2.80727
2.47998
2.48667
2.56227
2.1011
1.68656
1.51242
1.19299
0.919166
0.783995
0.742109
0.727607
0.617982
0.571078
0.549937
0.427325
0.313891
0.25165
0.21975
0.197585
0.148783
0.113066
0.0846574
0.0414751
-0.00165915
-0.0412401
-0.089871
-0.139581
-0.165386
-0.199772
-0.252086
-0.272782
-0.303804
-0.369197
-0.488912
-0.628591
-0.719354
-0.910976
-1.12459
-1.12656
-1.16264
-1.34688
-1.73925
-2.2076
-2.48257
-3.12468
-3.84662
-3.77959
-3.83663
-4.42005
-5.77061
-7.28343
-7.53264
-8.29858
-7.04443
-3.3677
-0.947112
1.52367
5.5536
8.01769
6.46682
5.04177
4.83915
3.69258
2.75827
2.4388
2.5309
2.7464
2.15131
1.6692
1.55838
1.18891
0.880726
0.752437
0.733313
0.749744
0.610309
0.57281
0.579162
0.430178
0.300967
0.241082
0.216027
0.203239
0.147037
0.112609
0.0892906
0.0431094
-0.00125777
-0.0388754
-0.0902655
-0.145301
-0.163517
-0.195238
-0.256249
-0.265369
-0.287139
-0.348132
-0.47906
-0.63518
-0.699513
-0.916265
-1.18037
-1.12117
-1.11554
-1.28788
-1.72789
-2.26673
-2.45073
-3.19525
-4.11927
-3.84606
-3.78235
-4.3639
-5.98409
-7.92574
-7.96411
-9.31727
-8.0461
-3.37672
-0.88867
1.51712
6.36057
9.42213
6.93619
5.09622
5.20493
3.76585
2.66602
2.36906
2.56415
2.9825
2.19104
1.62521
1.62152
1.18052
0.830709
0.714225
0.722311
0.782479
0.595468
0.571261
0.61863
0.431469
0.283505
0.228418
0.211574
0.211872
0.143769
0.111361
0.0954208
0.044543
-0.0013705
-0.035596
-0.0903767
-0.1535
-0.160738
-0.188745
-0.26408
-0.257357
-0.268318
-0.322833
-0.467798
-0.648297
-0.6693
-0.917863
-1.25766
-1.1121
-1.05738
-1.21171
-1.70978
-2.34957
-2.37891
-3.24956
-4.46862
-3.89423
-3.68284
-4.2335
-6.16457
-8.68081
-8.2796
-10.4856
-9.25533
-3.22409
-0.780225
1.38849
7.25278
11.1404
7.34145
5.01663
5.65947
3.81304
2.52361
2.26917
2.58092
3.29016
2.21385
1.5452
1.71154
1.16638
0.767142
0.669296
0.708301
0.830536
0.570299
0.564974
0.672266
0.430078
0.260546
0.213738
0.206171
0.224769
0.138241
0.109064
0.103654
0.0455831
-0.00226632
-0.0310703
-0.0899221
-0.165125
-0.156682
-0.179346
-0.277129
-0.248511
-0.247388
-0.292539
-0.454647
-0.671654
-0.62505
-0.913259
-1.36444
-1.09732
-0.987677
-1.11567
-1.68293
-2.47014
-2.25341
-3.27802
-4.92405
-3.91583
-3.53624
-4.01555
-6.29767
-9.60026
-8.40513
-11.8352
-10.7364
-2.83563
-0.616785
1.07456
8.22825
13.2589
7.63794
4.75712
6.24814
3.82381
2.32349
2.1387
2.57245
3.69486
2.21051
1.41712
1.84167
1.14387
0.687755
0.6179
0.68979
0.90018
0.530497
0.552031
0.745202
0.424278
0.231021
0.197287
0.199399
0.243617
0.129418
0.105408
0.114794
0.0459501
-0.00429871
-0.0248847
-0.0884792
-0.181419
-0.150888
-0.165721
-0.297436
-0.238361
-0.224523
-0.256352
-0.438695
-0.710316
-0.562059
-0.898816
-1.51101
-1.07349
-0.906362
-0.996715
-1.6437
-2.64757
-2.05671
-3.26689
-5.52377
-3.89769
-3.34303
-3.69575
-6.36195
-10.7577
-8.23933
-13.4059
-12.5733
-2.1129
-0.399576
0.491385
9.28111
15.8872
7.76665
4.26187
7.03252
3.78193
2.0578
1.97902
2.52548
4.22933
2.16832
1.22583
2.02963
1.10872
0.590028
0.560762
0.664285
0.999613
0.470341
0.529976
0.844051
0.411534
0.19378
0.179541
0.190554
0.270612
0.115889
0.10003
0.129878
0.0452539
-0.00791835
-0.0165381
-0.0854428
-0.203988
-0.142787
-0.14609
-0.327653
-0.226107
-0.200086
-0.213249
-0.418409
-0.771053
-0.474421
-0.869462
-1.71056
-1.03544
-0.814074
-0.851519
-1.58605
-2.90747
-1.76684
-3.19714
-6.3169
-3.81984
-3.10702
-3.25921
-6.32572
-12.2556
-7.64642
-15.2471
-14.8744
-0.927302
-0.140186
)
;

boundaryField
{
    left
    {
        type            calculated;
        value           uniform 0;
    }
    right
    {
        type            calculated;
        value           uniform 0;
    }
    interface
    {
        type            calculated;
        value           nonuniform List<scalar> 
64
(
0.491385
9.28111
15.8872
7.76665
4.26187
7.03252
3.78193
2.0578
1.97902
2.52548
4.22933
2.16832
1.22583
2.02963
1.10872
0.590028
0.560762
0.664285
0.999613
0.470341
0.529976
0.844051
0.411534
0.19378
0.179541
0.190554
0.270612
0.115889
0.10003
0.129878
0.0452539
-0.00791835
-0.0165381
-0.0854428
-0.203988
-0.142787
-0.14609
-0.327653
-0.226107
-0.200086
-0.213249
-0.418409
-0.771053
-0.474421
-0.869462
-1.71056
-1.03544
-0.814074
-0.851519
-1.58605
-2.90747
-1.76684
-3.19714
-6.3169
-3.81984
-3.10702
-3.25921
-6.32572
-12.2556
-7.64642
-15.2471
-14.8744
-0.927302
-0.140186
)
;
    }
    bottom
    {
        type            calculated;
        value           nonuniform List<scalar> 
64
(
0.00521714
0.0154053
0.0249151
0.033366
0.0404701
0.046085
0.0501631
0.0527543
0.0539851
0.0540273
0.0530744
0.0513239
0.0489646
0.0461685
0.0430855
0.0398414
0.0365377
0.033252
0.0300409
0.026942
0.0239778
0.021159
0.0184868
0.015956
0.0135562
0.0112735
0.00909102
0.00698976
0.00494891
0.00294625
0.000958354
-0.00103921
-0.00307185
-0.00516584
-0.00734831
-0.009647
-0.0120899
-0.0147046
-0.0175176
-0.0205529
-0.023831
-0.0273673
-0.0311701
-0.0352392
-0.0395626
-0.044114
-0.0488484
-0.0536983
-0.0585689
-0.0633341
-0.0678338
-0.0718732
-0.0752245
-0.0776319
-0.0788214
-0.0785151
-0.0764524
-0.0724165
-0.0662657
-0.057965
-0.0476124
-0.0354532
-0.0218773
-0.00739624
)
;
    }
    defaultFaces
    {
        type            empty;
    }
}


// ************************************************************************* //
