/*--------------------------------*- C++ -*----------------------------------*\
| =========                 |                                                 |
| \\      /  F ield         | OpenFOAM: The Open Source CFD Toolbox           |
|  \\    /   O peration     | Version:  5.x                                   |
|   \\  /    A nd           | Web:      www.OpenFOAM.org                      |
|    \\/     M anipulation  |                                                 |
\*---------------------------------------------------------------------------*/
FoamFile
{
    version     2.0;
    format      ascii;
    class       volScalarField;
    location    "0.4";
    object      T;
}
// * * * * * * * * * * * * * * * * * * * * * * * * * * * * * * * * * * * * * //

dimensions      [0 0 0 1 0 0 0];

internalField   nonuniform List<scalar> 
2048
(
9.80497
9.80513
9.80545
9.80591
9.80649
9.80717
9.80793
9.80874
9.80958
9.81043
9.81127
9.81209
9.81287
9.81362
9.81431
9.81496
9.81556
9.81611
9.8166
9.81704
9.81744
9.81779
9.8181
9.81837
9.8186
9.81879
9.81895
9.81908
9.81917
9.81923
9.81926
9.81926
9.81923
9.81917
9.81907
9.81894
9.81877
9.81856
9.81831
9.81801
9.81767
9.81727
9.81681
9.81629
9.81571
9.81506
9.81433
9.81353
9.81265
9.8117
9.81067
9.80958
9.80843
9.80723
9.806
9.80477
9.80355
9.80238
9.80129
9.80031
9.79947
9.79882
9.79837
9.79814
9.42331
9.4238
9.42475
9.42613
9.42787
9.4299
9.43216
9.43458
9.43707
9.4396
9.44209
9.44452
9.44685
9.44906
9.45112
9.45304
9.4548
9.45642
9.45788
9.45919
9.46036
9.4614
9.46231
9.4631
9.46378
9.46435
9.46482
9.46519
9.46547
9.46565
9.46574
9.46574
9.46564
9.46546
9.46517
9.46478
9.46428
9.46367
9.46293
9.46205
9.46103
9.45986
9.45851
9.45699
9.45526
9.45334
9.45119
9.44883
9.44623
9.44341
9.44037
9.43713
9.43372
9.43016
9.42651
9.42284
9.41921
9.41572
9.41247
9.40954
9.40706
9.4051
9.40375
9.40305
9.05801
9.05882
9.06041
9.06271
9.06561
9.069
9.07275
9.07675
9.08088
9.08504
9.08915
9.09314
9.09697
9.10058
9.10397
9.1071
9.10999
9.11262
9.115
9.11714
9.11904
9.12074
9.12222
9.12351
9.12461
9.12554
9.1263
9.1269
9.12735
9.12765
9.12779
9.12779
9.12764
9.12734
9.12687
9.12624
9.12543
9.12444
9.12324
9.12182
9.12017
9.11826
9.11607
9.11358
9.11078
9.10764
9.10415
9.10029
9.09605
9.09144
9.08646
9.08115
9.07553
9.06968
9.06368
9.05761
9.05162
9.04584
9.04043
9.03558
9.03144
9.02817
9.02592
9.02476
8.70817
8.70932
8.71158
8.71482
8.71892
8.72368
8.72895
8.73453
8.74029
8.74608
8.75178
8.75731
8.76259
8.76758
8.77223
8.77654
8.78049
8.78409
8.78734
8.79027
8.79287
8.79518
8.79721
8.79896
8.80047
8.80173
8.80277
8.80359
8.8042
8.8046
8.8048
8.8048
8.8046
8.80418
8.80356
8.8027
8.80161
8.80025
8.79863
8.7967
8.79445
8.79185
8.78888
8.78549
8.78167
8.77738
8.7726
8.76731
8.7615
8.75517
8.74832
8.741
8.73324
8.72514
8.7168
8.70836
8.7
8.69192
8.68434
8.67752
8.67169
8.66708
8.6639
8.66226
8.37296
8.37448
8.37743
8.38168
8.38702
8.39322
8.40004
8.40725
8.41465
8.42207
8.42936
8.43639
8.4431
8.44942
8.4553
8.46073
8.46571
8.47023
8.47431
8.47798
8.48124
8.48413
8.48666
8.48886
8.49074
8.49232
8.49361
8.49463
8.49539
8.4959
8.49615
8.49616
8.4959
8.49539
8.49462
8.49355
8.49219
8.49051
8.48849
8.48609
8.48329
8.48005
8.47634
8.47211
8.46732
8.46195
8.45596
8.44932
8.442
8.43401
8.42535
8.41607
8.40621
8.39589
8.38523
8.37441
8.36366
8.35323
8.34342
8.33455
8.32696
8.32095
8.31678
8.31465
8.0516
8.05351
8.05723
8.06255
8.06922
8.07692
8.08536
8.09425
8.10333
8.11239
8.12126
8.12979
8.1379
8.14551
8.15258
8.15909
8.16504
8.17044
8.17531
8.17968
8.18356
8.18699
8.18999
8.1926
8.19483
8.1967
8.19823
8.19945
8.20035
8.20095
8.20125
8.20126
8.20097
8.20037
8.19945
8.1982
8.1966
8.19462
8.19223
8.18941
8.1861
8.18226
8.17786
8.17285
8.16717
8.16078
8.15364
8.1457
8.13695
8.12737
8.11696
8.10576
8.09384
8.08131
8.06833
8.05511
8.04191
8.02906
8.01693
8.00593
7.99647
7.98896
7.98375
7.98107
7.74337
7.74571
7.75026
7.75675
7.76484
7.77415
7.78429
7.79492
7.80572
7.81645
7.8269
7.83692
7.8464
7.85528
7.8635
7.87104
7.87793
7.88416
7.88976
7.89478
7.89924
7.90318
7.90662
7.90961
7.91216
7.9143
7.91606
7.91745
7.91848
7.91917
7.91952
7.91953
7.9192
7.91853
7.91749
7.91607
7.91425
7.912
7.90928
7.90606
7.90228
7.89791
7.89287
7.88713
7.88062
7.87328
7.86506
7.85591
7.84579
7.83468
7.82257
7.80951
7.79555
7.78083
7.76551
7.74984
7.73413
7.71877
7.7042
7.69093
7.67948
7.67036
7.664
7.66074
7.44756
7.45039
7.45586
7.46364
7.47328
7.4843
7.49625
7.50868
7.52125
7.53367
7.54571
7.55721
7.56805
7.57816
7.58748
7.59602
7.60379
7.6108
7.6171
7.62273
7.62772
7.63213
7.63598
7.63932
7.64217
7.64456
7.64652
7.64807
7.64923
7.65
7.65039
7.65041
7.65005
7.64931
7.64816
7.64659
7.64458
7.64208
7.63907
7.63549
7.63129
7.62642
7.62081
7.6144
7.60711
7.59889
7.58966
7.57936
7.56794
7.55537
7.54162
7.52673
7.51077
7.49386
7.47619
7.45804
7.43974
7.42176
7.40461
7.38891
7.37531
7.36443
7.35683
7.35292
7.16353
7.1669
7.1734
7.1826
7.19394
7.20682
7.22067
7.235
7.2494
7.26353
7.27717
7.29014
7.30231
7.3136
7.324
7.33348
7.34208
7.34983
7.35677
7.36297
7.36846
7.3733
7.37753
7.38118
7.38431
7.38693
7.38908
7.39078
7.39204
7.39289
7.39333
7.39336
7.39297
7.39217
7.39092
7.38922
7.38703
7.38432
7.38104
7.37715
7.37257
7.36726
7.36112
7.3541
7.3461
7.33706
7.32689
7.31552
7.30287
7.2889
7.27357
7.25691
7.23897
7.21988
7.19984
7.17915
7.15818
7.13745
7.11757
7.09926
7.08332
7.07051
7.06154
7.05692
6.89064
6.89463
6.9023
6.91308
6.92628
6.94117
6.95705
6.97336
6.98963
7.00551
7.02075
7.03516
7.04864
7.0611
7.07251
7.08289
7.09228
7.10071
7.10825
7.11497
7.12092
7.12616
7.13073
7.13468
7.13805
7.14088
7.1432
7.14503
7.1464
7.14732
7.1478
7.14784
7.14743
7.14657
7.14525
7.14343
7.14109
7.13819
7.13468
7.1305
7.1256
7.11988
7.11327
7.10569
7.09705
7.08725
7.07622
7.06384
7.05004
7.03474
7.0179
6.99951
6.97962
6.95837
6.93594
6.91266
6.88893
6.86532
6.84253
6.82141
6.80291
6.78799
6.77749
6.77207
6.62829
6.63299
6.64198
6.65454
6.6698
6.68686
6.7049
6.72327
6.74146
6.7591
6.77594
6.7918
6.80655
6.82013
6.83252
6.84375
6.85386
6.86293
6.87102
6.87822
6.88459
6.89019
6.89507
6.89929
6.90289
6.90591
6.90838
6.91034
6.9118
6.91278
6.91329
6.91334
6.91292
6.91202
6.91062
6.90871
6.90624
6.90317
6.89946
6.89504
6.88984
6.88377
6.87674
6.86866
6.85943
6.84895
6.83711
6.82381
6.80893
6.79238
6.77408
6.75402
6.73223
6.70882
6.684
6.65808
6.63151
6.60488
6.57899
6.55483
6.53353
6.51626
6.50407
6.49776
6.37591
6.38142
6.39192
6.40649
6.42402
6.44342
6.46375
6.48427
6.50442
6.52385
6.54228
6.55955
6.57554
6.5902
6.60353
6.61555
6.62634
6.63599
6.64459
6.65222
6.65897
6.6649
6.67007
6.67454
6.67834
6.68152
6.68413
6.68619
6.68774
6.68878
6.68933
6.68939
6.68896
6.68802
6.68656
6.68456
6.68198
6.67878
6.6749
6.67027
6.66481
6.65843
6.65103
6.64251
6.63275
6.62165
6.60908
6.59492
6.57904
6.56131
6.54163
6.51996
6.4963
6.47076
6.44355
6.41496
6.38545
6.35567
6.32648
6.29903
6.27465
6.25478
6.24069
6.23339
6.13295
6.1394
6.15162
6.16844
6.18849
6.21043
6.23319
6.25593
6.27808
6.29928
6.31929
6.33795
6.35516
6.37085
6.38506
6.39782
6.40923
6.41941
6.42846
6.43649
6.44359
6.44982
6.45525
6.45993
6.46391
6.46725
6.46998
6.47214
6.47376
6.47485
6.47544
6.47551
6.47507
6.4741
6.47259
6.47052
6.46785
6.46453
6.4605
6.4557
6.45003
6.44338
6.43566
6.42674
6.41651
6.40485
6.39162
6.37669
6.35989
6.34106
6.32007
6.29685
6.27137
6.24373
6.21412
6.18285
6.15034
6.11726
6.08456
6.05354
6.02579
6.00302
5.98682
5.9784
5.89887
5.90641
5.92061
5.93998
5.9628
5.98749
6.0128
6.03782
6.06199
6.08496
6.10654
6.12656
6.14493
6.16162
6.17665
6.1901
6.20208
6.21273
6.22219
6.23058
6.23799
6.24449
6.25015
6.25502
6.25917
6.26263
6.26547
6.26772
6.2694
6.27055
6.27116
6.27125
6.2708
6.26981
6.26826
6.26613
6.26338
6.25997
6.25583
6.25088
6.24503
6.23816
6.23016
6.2209
6.21025
6.19809
6.18427
6.16864
6.151
6.13116
6.10894
6.08423
6.05699
6.02728
5.9953
5.96132
5.92575
5.88925
5.85282
5.81794
5.78648
5.76049
5.74192
5.73226
5.67315
5.68195
5.69844
5.7207
5.74658
5.77423
5.8022
5.82956
5.85575
5.88047
5.90358
5.92493
5.94444
5.96207
5.97787
5.99194
6.00443
6.01551
6.02533
6.03403
6.04172
6.04846
6.05433
6.05938
6.06366
6.06724
6.07017
6.07249
6.07424
6.07543
6.07607
6.07617
6.07572
6.07472
6.07313
6.07095
6.06814
6.06465
6.06042
6.05536
6.04937
6.04232
6.03408
6.02452
6.01351
6.0009
5.98656
5.9703
5.95192
5.93115
5.90778
5.88166
5.85271
5.82098
5.78665
5.74998
5.71132
5.67127
5.6309
5.59184
5.55629
5.52671
5.50551
5.49445
5.45529
5.46557
5.4847
5.51022
5.53948
5.57028
5.60105
5.63077
5.65896
5.6854
5.71
5.73265
5.75325
5.77177
5.78829
5.80293
5.81586
5.82731
5.83744
5.84643
5.85436
5.86132
5.86738
5.87258
5.87698
5.88066
5.88367
5.88606
5.88785
5.88908
5.88976
5.88987
5.88942
5.8884
5.88679
5.88457
5.88171
5.87817
5.87387
5.86873
5.86263
5.85543
5.847
5.83719
5.82585
5.81285
5.79805
5.78125
5.7622
5.7406
5.71617
5.6887
5.65811
5.62441
5.58777
5.54843
5.50666
5.46298
5.41844
5.37488
5.33483
5.30125
5.2771
5.2645
5.2448
5.2568
5.279
5.30821
5.34117
5.37534
5.40899
5.44109
5.47123
5.49933
5.5254
5.54931
5.57095
5.59032
5.6075
5.62264
5.63596
5.64771
5.65812
5.66735
5.6755
5.68267
5.68889
5.69422
5.69873
5.70249
5.70556
5.708
5.70985
5.71111
5.71181
5.71194
5.7115
5.71047
5.70883
5.70659
5.70369
5.70011
5.69576
5.69057
5.68439
5.67709
5.6685
5.65847
5.64686
5.63352
5.61831
5.60105
5.58143
5.55909
5.53368
5.50495
5.47278
5.43715
5.39825
5.3563
5.31145
5.26406
5.21514
5.16671
5.12172
5.08368
5.05625
5.04194
5.04121
5.05522
5.08096
5.11437
5.15137
5.1891
5.22571
5.26016
5.29219
5.32189
5.34937
5.37451
5.39716
5.41733
5.43511
5.45068
5.46432
5.47633
5.48697
5.49641
5.50476
5.5121
5.51848
5.52393
5.52852
5.53234
5.53547
5.53796
5.53984
5.54114
5.54187
5.54201
5.54157
5.54053
5.53889
5.53662
5.5337
5.53009
5.52571
5.52049
5.51428
5.5069
5.49819
5.48798
5.47613
5.46249
5.44693
5.42928
5.40919
5.38621
5.35991
5.33001
5.29632
5.25881
5.2177
5.17322
5.12535
5.07422
5.0207
4.96703
4.91661
4.8736
4.84251
4.82635
4.84406
4.86039
4.89026
4.92841
4.96979
5.01127
5.0509
5.08765
5.12147
5.15268
5.18154
5.20789
5.2315
5.25241
5.27074
5.28668
5.30058
5.31278
5.32361
5.33323
5.34176
5.34927
5.35579
5.36133
5.36599
5.36985
5.37303
5.37555
5.37747
5.37881
5.37955
5.37972
5.37928
5.37824
5.37658
5.37429
5.37136
5.36773
5.36335
5.35813
5.3519
5.34449
5.33569
5.32534
5.31329
5.29937
5.28352
5.26556
5.24509
5.22157
5.19447
5.16348
5.12835
5.08899
5.04572
4.99884
4.94805
4.89317
4.83485
4.77556
4.7192
4.6706
4.63549
4.61733
4.65288
4.67189
4.70659
4.75012
4.7962
4.84159
4.88428
4.92324
4.95872
4.99133
5.02154
5.04909
5.07361
5.09521
5.11404
5.13028
5.14435
5.1567
5.16768
5.17746
5.18614
5.19381
5.20046
5.20609
5.21078
5.21468
5.21788
5.22045
5.22239
5.22375
5.22453
5.22471
5.22428
5.22324
5.22156
5.21926
5.21632
5.21269
5.20832
5.20312
5.19692
5.1895
5.18064
5.17018
5.15796
5.1438
5.12768
5.10949
5.08875
5.0648
5.037
5.00499
4.9685
4.92731
4.88194
4.83279
4.77924
4.72068
4.65735
4.59204
4.5292
4.4743
4.43477
4.41449
4.46723
4.48932
4.52967
4.57929
4.63037
4.67979
4.72558
4.76661
4.80359
4.83746
4.86901
4.89776
4.92314
4.94538
4.96466
4.98111
4.9953
5.00772
5.01883
5.02875
5.03756
5.04538
5.05216
5.05785
5.06257
5.06648
5.06971
5.0723
5.07427
5.07566
5.07646
5.07666
5.07624
5.0752
5.07351
5.0712
5.06826
5.06463
5.06028
5.05513
5.04898
5.04159
5.03269
5.02216
5.0098
4.9954
4.97905
4.96072
4.93981
4.91555
4.88712
4.85418
4.81642
4.77341
4.72595
4.67473
4.61863
4.55651
4.48797
4.41623
4.34636
4.28431
4.23996
4.21751
4.2867
4.31227
4.35926
4.41579
4.47206
4.52563
4.57453
4.61744
4.65574
4.69072
4.7236
4.75359
4.77975
4.80259
4.82227
4.83886
4.85308
4.86552
4.87674
4.88678
4.89569
4.90366
4.91058
4.91631
4.92104
4.92494
4.92819
4.9308
4.93279
4.93421
4.93504
4.93525
4.93484
4.9338
4.9321
4.92978
4.92684
4.92323
4.91891
4.91383
4.90776
4.90043
4.89153
4.88093
4.86848
4.85385
4.83727
4.81888
4.79792
4.77348
4.74448
4.71071
4.67179
4.62692
4.57738
4.52433
4.46594
4.40046
4.3265
4.2479
4.17048
4.10023
4.0507
4.02609
4.11088
4.14029
4.19514
4.25952
4.32108
4.37886
4.43091
4.47544
4.51482
4.55071
4.58498
4.61626
4.64312
4.6665
4.68656
4.7032
4.71737
4.72976
4.74107
4.75123
4.76021
4.76836
4.77542
4.78117
4.78588
4.78975
4.79301
4.79564
4.79765
4.79909
4.79995
4.80018
4.79979
4.79875
4.79704
4.7947
4.79178
4.78818
4.78389
4.77891
4.77295
4.76573
4.75682
4.7462
4.73368
4.7188
4.70199
4.68364
4.66274
4.63827
4.60876
4.57422
4.5343
4.48748
4.4358
4.38123
4.32087
4.25236
4.17272
4.08682
4.00144
3.92163
3.8666
3.83997
3.93938
3.97294
4.03713
4.11046
4.17717
4.23922
4.29448
4.3403
4.38053
4.41707
4.45283
4.48551
4.51293
4.53682
4.55725
4.57382
4.58788
4.60013
4.61154
4.62181
4.63083
4.63916
4.64638
4.65213
4.65679
4.66061
4.66389
4.66655
4.66855
4.67003
4.67092
4.67117
4.67079
4.66976
4.66802
4.66566
4.66278
4.65919
4.65492
4.65007
4.64426
4.63718
4.62828
4.61764
4.60513
4.58995
4.57287
4.55468
4.53396
4.50961
4.47961
4.44439
4.40367
4.35477
4.3008
4.24511
4.18315
4.11208
4.02644
3.93278
3.83919
3.74802
3.68732
3.65894
3.77188
3.80972
3.88511
3.96866
4.0401
4.10644
4.16507
4.21172
4.25256
4.28941
4.32683
4.36109
4.38886
4.41323
4.43406
4.45043
4.4643
4.47631
4.48787
4.49825
4.50724
4.5158
4.52322
4.52891
4.53351
4.53724
4.54055
4.54323
4.54522
4.54674
4.54767
4.54793
4.54756
4.54655
4.54479
4.5424
4.53956
4.53598
4.53173
4.52704
4.52139
4.51451
4.50561
4.49497
4.48254
4.467
4.44958
4.43168
4.41125
4.38724
4.35673
4.32088
4.27968
4.22844
4.17194
4.11566
4.05246
3.97952
3.88745
3.78551
3.68382
3.57882
3.51249
3.48288
3.60807
3.65003
3.73898
3.83428
3.90956
3.98027
4.04251
4.08936
4.13062
4.16732
4.2067
4.2428
4.2706
4.29544
4.31674
4.33273
4.34636
4.35802
4.36977
4.38029
4.38917
4.39801
4.40567
4.41125
4.41576
4.41938
4.42273
4.42544
4.4274
4.42897
4.42993
4.43021
4.42986
4.42887
4.42706
4.42463
4.42186
4.41828
4.41403
4.40954
4.40408
4.39746
4.38854
4.3779
4.36567
4.34966
4.33179
4.31437
4.29431
4.2709
4.23979
4.20333
4.16213
4.1082
4.04875
3.99259
3.92847
3.85465
3.75554
3.64469
3.5356
3.41331
3.34179
3.31168
3.44776
3.49321
3.59872
3.70757
3.78517
3.8604
3.92672
3.97289
4.01445
4.05039
4.09216
4.13046
4.15782
4.18316
4.20508
4.22044
4.23381
4.24494
4.257
4.26768
4.27631
4.28553
4.29349
4.29888
4.3033
4.30675
4.31017
4.31292
4.31482
4.31645
4.31747
4.31775
4.31741
4.31646
4.31461
4.3121
4.30944
4.30586
4.30156
4.29733
4.29207
4.28579
4.27679
4.26615
4.25431
4.23768
4.21916
4.20248
4.18283
4.16039
4.12848
4.0914
4.0509
3.99375
3.93069
3.87564
3.8108
3.73751
3.63047
3.50991
3.39507
3.25058
3.17493
3.14534
3.29081
3.33842
3.46436
3.58897
3.66644
3.74653
3.81767
3.86192
3.90386
3.93813
3.98295
4.02396
4.05018
4.07612
4.09888
4.11328
4.1264
4.13679
4.14932
4.16022
4.16839
4.17812
4.18649
4.19156
4.1959
4.1991
4.20265
4.20545
4.20724
4.20897
4.21003
4.21031
4.20999
4.2091
4.20717
4.20456
4.20206
4.19846
4.19406
4.19016
4.18508
4.17928
4.17011
4.15944
4.14825
4.1308
4.11137
4.09577
4.0765
4.05552
4.02251
3.98468
3.94592
3.88483
3.8172
3.76464
3.699
3.62827
3.51199
3.38059
3.26312
3.08943
3.01168
2.9839
3.13723
3.18464
3.33599
3.47908
3.55275
3.63834
3.7154
3.75602
3.79872
3.83005
3.87885
3.92325
3.94732
3.97404
3.99799
4.01093
4.02395
4.03325
4.04652
4.05771
4.06513
4.07556
4.08446
4.08904
4.09332
4.09618
4.09993
4.1028
4.10443
4.10628
4.10741
4.10767
4.10737
4.10656
4.10454
4.10176
4.09952
4.09586
4.09127
4.08782
4.08288
4.07773
4.06826
4.05747
4.04735
4.02879
4.00804
3.99404
3.975
3.95617
3.92157
3.88275
3.84723
3.7812
3.70759
3.6595
3.5925
3.52721
3.39985
3.25593
3.14112
2.92826
2.85189
2.82751
2.98719
3.03058
3.21383
3.37871
3.44325
3.53548
3.62011
3.65464
3.69898
3.72555
3.77963
3.82837
3.84881
3.87666
3.9023
3.91311
3.92627
3.93402
3.94841
3.95998
3.96623
3.97763
3.98724
3.99107
3.99538
3.99775
4.00182
4.00477
4.00614
4.00818
4.00938
4.00961
4.00931
4.00864
4.0065
4.00348
4.0016
3.99787
3.99294
3.99011
3.98521
3.98096
3.971
3.95997
3.95147
3.93144
3.90883
3.89714
3.87797
3.86228
3.82538
3.78509
3.75496
3.68265
3.60108
3.56028
3.49057
3.43479
3.29377
3.13479
3.03111
2.76494
2.6956
2.67632
2.84105
2.87463
3.09818
3.28897
3.33686
3.43763
3.53212
3.55712
3.60473
3.62396
3.68512
3.73942
3.7542
3.78371
3.81175
3.81945
3.83324
3.83876
3.8548
3.86689
3.87137
3.88414
3.89466
3.8974
3.90188
3.90357
3.90811
3.91118
3.91216
3.91447
3.91574
3.91591
3.91561
3.91513
3.91284
3.90946
3.90813
3.90428
3.89883
3.89683
3.89182
3.88882
3.87811
3.86663
3.86054
3.83854
3.81333
3.80499
3.785
3.77384
3.73364
3.69111
3.66936
3.58902
3.49675
3.46722
3.39228
3.35172
3.19347
3.01554
2.93599
2.59661
2.54307
2.53058
2.69942
2.71478
2.98946
3.21125
3.23216
3.34443
3.45193
3.46262
3.51624
3.52446
3.59516
3.65663
3.66292
3.69494
3.72634
3.72959
3.74478
3.74711
3.76554
3.77835
3.78024
3.79491
3.80662
3.80777
3.81267
3.81338
3.81863
3.82184
3.82225
3.82496
3.82631
3.82638
3.82606
3.82586
3.82339
3.81949
3.81893
3.81492
3.80869
3.80785
3.80244
3.80119
3.78936
3.77709
3.77453
3.74992
3.72108
3.71757
3.69564
3.69096
3.64608
3.6001
3.59086
3.50019
3.39346
3.38082
3.29636
3.27897
3.09868
2.89598
2.85973
2.41951
2.39491
2.39053
)
;

boundaryField
{
    left
    {
        type            zeroGradient;
    }
    right
    {
        type            zeroGradient;
    }
    interface
    {
        type            fixedValue;
        value           nonuniform List<scalar> 
64
(
2.6298
2.6298
2.93772
3.17858
3.17858
3.29902
3.41531
3.41531
3.47419
3.47419
3.55144
3.61764
3.61764
3.65158
3.68536
3.68536
3.7019
3.7019
3.72208
3.73537
3.73537
3.75139
3.76388
3.76388
3.76919
3.76919
3.77496
3.77826
3.77826
3.78126
3.78264
3.78264
3.7823
3.7823
3.77972
3.77543
3.77543
3.77132
3.7645
3.7645
3.75865
3.75865
3.74601
3.73309
3.73309
3.70674
3.67534
3.67534
3.65152
3.65152
3.60332
3.55466
3.55466
3.45721
3.3405
3.3405
3.24772
3.24772
3.05296
2.83315
2.83315
2.32196
2.32196
2.32196
)
;
    }
    bottom
    {
        type            fixedValue;
        value           uniform 10;
    }
    defaultFaces
    {
        type            empty;
    }
}


// ************************************************************************* //
