/*--------------------------------*- C++ -*----------------------------------*\
| =========                 |                                                 |
| \\      /  F ield         | OpenFOAM: The Open Source CFD Toolbox           |
|  \\    /   O peration     | Version:  5.x                                   |
|   \\  /    A nd           | Web:      www.OpenFOAM.org                      |
|    \\/     M anipulation  |                                                 |
\*---------------------------------------------------------------------------*/
FoamFile
{
    version     2.0;
    format      ascii;
    class       volScalarField;
    location    "0.9";
    object      gradTy;
}
// * * * * * * * * * * * * * * * * * * * * * * * * * * * * * * * * * * * * * //

dimensions      [0 -1 0 1 0 0 0];

internalField   nonuniform List<scalar> 
2048
(
-24.5222
-24.4893
-24.4248
-24.3314
-24.2127
-24.0727
-23.916
-23.7472
-23.5705
-23.3898
-23.2086
-23.0295
-22.855
-22.6869
-22.5265
-22.3748
-22.2323
-22.0994
-21.9762
-21.8628
-21.7589
-21.6645
-21.5793
-21.5031
-21.4358
-21.377
-21.3267
-21.2847
-21.2508
-21.2251
-21.2076
-21.1982
-21.1971
-21.2044
-21.2204
-21.2452
-21.2793
-21.3231
-21.3769
-21.4414
-21.517
-21.6043
-21.704
-21.8165
-21.9425
-22.0824
-22.2364
-22.4048
-22.5874
-22.7838
-22.9931
-23.2141
-23.4448
-23.6825
-23.924
-24.1653
-24.4014
-24.627
-24.8362
-25.0229
-25.1811
-25.3053
-25.3909
-25.4345
-24.5482
-24.5142
-24.4476
-24.3513
-24.2291
-24.0855
-23.9252
-23.7529
-23.573
-23.3896
-23.206
-23.025
-22.8491
-22.6799
-22.5187
-22.3664
-22.2236
-22.0906
-21.9674
-21.8541
-21.7503
-21.6561
-21.5711
-21.4951
-21.4278
-21.3692
-21.319
-21.277
-21.2432
-21.2175
-21.2
-21.1905
-21.1893
-21.1964
-21.2121
-21.2367
-21.2705
-21.3139
-21.3673
-21.4313
-21.5065
-21.5933
-21.6926
-21.8047
-21.9303
-22.0699
-22.2239
-22.3923
-22.5753
-22.7724
-22.9828
-23.2054
-23.4382
-23.6786
-23.9235
-24.1686
-24.4091
-24.6395
-24.8537
-25.0453
-25.2079
-25.3358
-25.4241
-25.4691
-24.5981
-24.5619
-24.4912
-24.3893
-24.2605
-24.1097
-23.9423
-23.7633
-23.5774
-23.3888
-23.2008
-23.0163
-22.8376
-22.6663
-22.5037
-22.3505
-22.2072
-22.074
-21.9508
-21.8376
-21.7341
-21.6402
-21.5555
-21.4798
-21.4128
-21.3544
-21.3044
-21.2626
-21.2289
-21.2032
-21.1855
-21.1759
-21.1744
-21.1813
-21.1966
-21.2207
-21.2538
-21.2965
-21.3492
-21.4123
-21.4866
-21.5726
-21.6709
-21.7822
-21.9072
-22.0463
-22.2
-22.3686
-22.5522
-22.7505
-22.963
-23.1885
-23.4253
-23.6709
-23.922
-24.1745
-24.4234
-24.6631
-24.8868
-25.0878
-25.2592
-25.3943
-25.4878
-25.5356
-24.6703
-24.6309
-24.554
-24.4437
-24.305
-24.1438
-23.9661
-23.7775
-23.583
-23.3869
-23.1927
-23.0033
-22.8207
-22.6466
-22.4821
-22.3277
-22.1837
-22.0503
-21.9272
-21.8143
-21.7112
-21.6177
-21.5335
-21.4582
-21.3917
-21.3337
-21.2839
-21.2423
-21.2087
-21.183
-21.1653
-21.1554
-21.1536
-21.16
-21.1747
-21.1981
-21.2304
-21.2721
-21.3237
-21.3856
-21.4586
-21.5433
-21.6403
-21.7505
-21.8744
-22.0127
-22.166
-22.3347
-22.5191
-22.7191
-22.9343
-23.1639
-23.4062
-23.6589
-23.9188
-24.1819
-24.443
-24.6959
-24.9336
-25.1485
-25.3326
-25.4785
-25.5798
-25.6316
-24.7639
-24.7199
-24.6347
-24.5131
-24.3613
-24.1864
-23.9953
-23.7943
-23.5888
-23.3833
-23.1815
-22.9859
-22.7986
-22.6212
-22.4543
-22.2986
-22.154
-22.0204
-21.8976
-21.7851
-21.6826
-21.5897
-21.506
-21.4313
-21.3654
-21.3078
-21.2584
-21.2171
-21.1836
-21.158
-21.1401
-21.13
-21.1278
-21.1336
-21.1476
-21.17
-21.2013
-21.2417
-21.2918
-21.3523
-21.4236
-21.5066
-21.602
-21.7106
-21.8332
-21.9704
-22.123
-22.2916
-22.4768
-22.6787
-22.8972
-23.1316
-23.3806
-23.6422
-23.9133
-24.1897
-24.4662
-24.7363
-24.9922
-25.2253
-25.4264
-25.5867
-25.6983
-25.7557
-24.8782
-24.8285
-24.7325
-24.5964
-24.4281
-24.236
-24.0284
-23.8124
-23.5938
-23.3774
-23.1665
-22.9639
-22.7713
-22.5901
-22.4208
-22.2636
-22.1185
-21.985
-21.8626
-21.7507
-21.6489
-21.5568
-21.4739
-21.3999
-21.3346
-21.2776
-21.2287
-21.1876
-21.1544
-21.1287
-21.1107
-21.1003
-21.0976
-21.1028
-21.1159
-21.1373
-21.1673
-21.2063
-21.2547
-21.3133
-21.3827
-21.4637
-21.5571
-21.6637
-21.7845
-21.9203
-22.0719
-22.2403
-22.426
-22.6298
-22.8517
-23.0916
-23.3484
-23.6202
-23.9043
-24.1966
-24.4917
-24.7826
-25.061
-25.3168
-25.5392
-25.7177
-25.8426
-25.907
-25.0133
-24.9563
-24.8468
-24.6927
-24.504
-24.2913
-24.0641
-23.8306
-23.5971
-23.3682
-23.1474
-22.937
-22.7387
-22.5535
-22.3817
-22.2233
-22.0779
-21.9447
-21.8229
-21.7119
-21.611
-21.5198
-21.4378
-21.3646
-21.3
-21.2437
-21.1953
-21.1547
-21.1216
-21.096
-21.0779
-21.0672
-21.064
-21.0684
-21.0806
-21.1008
-21.1294
-21.1667
-21.2132
-21.2696
-21.3367
-21.4153
-21.5063
-21.6107
-21.7294
-21.8634
-22.0136
-22.1813
-22.3673
-22.5728
-22.7983
-23.0439
-23.3091
-23.5922
-23.8909
-24.2012
-24.5177
-24.8331
-25.1382
-25.4214
-25.6699
-25.8707
-26.0121
-26.0852
-25.1697
-25.1036
-24.9772
-24.801
-24.5879
-24.3507
-24.101
-23.8477
-23.5975
-23.3551
-23.1236
-22.905
-22.7007
-22.5115
-22.3374
-22.178
-22.0326
-21.9
-21.7793
-21.6693
-21.5696
-21.4794
-21.3983
-21.3261
-21.2624
-21.2069
-21.1591
-21.1189
-21.0861
-21.0606
-21.0422
-21.0312
-21.0274
-21.0311
-21.0423
-21.0613
-21.0883
-21.1237
-21.168
-21.222
-21.2865
-21.3624
-21.4508
-21.5525
-21.6687
-21.8005
-21.9489
-22.1153
-22.3013
-22.5081
-22.7369
-22.9883
-23.2622
-23.5575
-23.872
-24.2021
-24.5426
-24.8861
-25.2221
-25.5377
-25.8175
-26.0454
-26.2068
-26.2904
-25.3481
-25.2707
-25.1236
-24.9207
-24.6784
-24.4128
-24.1374
-23.8622
-23.5942
-23.3374
-23.0947
-22.8676
-22.6573
-22.4642
-22.288
-22.1281
-21.9831
-21.8516
-21.7322
-21.6236
-21.5251
-21.4361
-21.3562
-21.285
-21.2223
-21.1676
-21.1206
-21.0809
-21.0484
-21.0228
-21.0044
-20.9929
-20.9886
-20.9915
-21.0017
-21.0193
-21.0446
-21.078
-21.12
-21.1713
-21.2329
-21.3058
-21.3911
-21.4899
-21.6032
-21.7323
-21.8785
-22.0432
-22.2283
-22.4359
-22.6676
-22.9247
-23.2075
-23.5154
-23.8465
-24.1979
-24.5648
-24.9395
-25.3111
-25.6645
-25.9812
-26.2414
-26.4268
-26.5233
-25.5497
-25.4582
-25.2858
-25.0506
-24.7741
-24.4758
-24.1718
-23.873
-23.586
-23.3145
-23.0603
-22.8247
-22.6084
-22.4116
-22.2339
-22.0739
-21.9299
-21.7999
-21.6822
-21.5754
-21.4783
-21.3906
-21.3118
-21.2418
-21.1802
-21.1265
-21.0802
-21.0411
-21.0088
-20.9834
-20.9647
-20.9529
-20.9481
-20.9501
-20.9593
-20.9755
-20.999
-21.0302
-21.0697
-21.1181
-21.1765
-21.2461
-21.3281
-21.4236
-21.5337
-21.6598
-21.8031
-21.9654
-22.1491
-22.3567
-22.5908
-22.8531
-23.1446
-23.4652
-23.8136
-24.1874
-24.5824
-24.9916
-25.4033
-25.8002
-26.1602
-26.4588
-26.6728
-26.7846
-25.7759
-25.6671
-25.4638
-25.19
-24.8733
-24.538
-24.2025
-23.8786
-23.5722
-23.2858
-23.0202
-22.7762
-22.5541
-22.354
-22.1751
-22.0156
-21.8733
-21.7456
-21.6301
-21.5251
-21.4297
-21.3433
-21.2657
-21.1969
-21.1365
-21.0838
-21.0385
-21
-20.9681
-20.9427
-20.9238
-20.9116
-20.9062
-20.9075
-20.9155
-20.9304
-20.9521
-20.9811
-21.0178
-21.063
-21.118
-21.1839
-21.2623
-21.3542
-21.4609
-21.5836
-21.7235
-21.8827
-22.064
-22.2707
-22.5064
-22.7734
-23.0734
-23.4067
-23.7725
-24.1691
-24.5938
-25.0402
-25.4966
-25.9433
-26.3537
-26.6975
-26.9455
-27.0754
-26.0287
-25.8986
-25.6575
-25.3376
-24.9742
-24.5973
-24.2278
-23.8778
-23.552
-23.251
-22.9744
-22.722
-22.4944
-22.2914
-22.1119
-21.9538
-21.814
-21.6891
-21.5762
-21.4734
-21.3797
-21.2946
-21.2182
-21.1507
-21.0916
-21.0402
-20.9959
-20.958
-20.9264
-20.901
-20.882
-20.8694
-20.8634
-20.8639
-20.871
-20.8844
-20.9043
-20.931
-20.9647
-21.0066
-21.0578
-21.1199
-21.1943
-21.2825
-21.3855
-21.5044
-21.6404
-21.7956
-21.9735
-22.1784
-22.4146
-22.6857
-22.9936
-23.3393
-23.7223
-24.1419
-24.5969
-25.0831
-25.5889
-26.0921
-26.561
-26.9579
-27.2459
-27.3971
-26.3103
-26.1539
-25.8668
-25.4919
-25.0748
-24.6515
-24.2457
-23.8692
-23.5247
-23.21
-22.9227
-22.6622
-22.4294
-22.224
-22.0446
-21.8887
-21.7523
-21.631
-21.5213
-21.4209
-21.3288
-21.245
-21.1697
-21.1035
-21.0459
-20.9959
-20.9527
-20.9155
-20.8842
-20.8588
-20.8395
-20.8266
-20.82
-20.8199
-20.826
-20.8381
-20.8562
-20.8804
-20.9111
-20.9494
-20.9965
-21.0543
-21.1247
-21.2089
-21.3081
-21.423
-21.5546
-21.7051
-21.8783
-22.0801
-22.3158
-22.59
-22.9054
-23.2631
-23.6628
-24.1046
-24.5901
-25.1179
-25.6776
-26.2448
-26.7812
-27.2403
-27.5751
-27.7511
-26.6235
-26.4349
-26.0917
-25.6513
-25.1725
-24.6982
-24.2544
-23.8519
-23.49
-23.1628
-22.8654
-22.5971
-22.3592
-22.1518
-21.9734
-21.8206
-21.6887
-21.5718
-21.4657
-21.3679
-21.2775
-21.1947
-21.1205
-21.0556
-20.9996
-20.9513
-20.9093
-20.8729
-20.8419
-20.8164
-20.7968
-20.7834
-20.7764
-20.7756
-20.7808
-20.7917
-20.808
-20.8298
-20.8574
-20.8917
-20.9345
-20.9878
-21.0538
-21.1339
-21.2292
-21.3401
-21.467
-21.6116
-21.779
-21.9761
-22.2102
-22.4866
-22.8088
-23.1781
-23.5937
-24.0565
-24.5714
-25.142
-25.7603
-26.3993
-27.0135
-27.5452
-27.9346
-28.1391
-26.9715
-26.7432
-26.3316
-25.8135
-25.2647
-24.735
-24.2518
-23.8246
-23.4477
-23.1098
-22.8028
-22.5266
-22.284
-22.0751
-21.8983
-21.75
-21.6236
-21.5122
-21.4102
-21.315
-21.2262
-21.1442
-21.0707
-21.0072
-20.9532
-20.9067
-20.866
-20.8304
-20.7997
-20.774
-20.754
-20.7402
-20.7327
-20.7314
-20.7359
-20.7456
-20.7602
-20.7796
-20.804
-20.8341
-20.8721
-20.9206
-20.982
-21.058
-21.1494
-21.2564
-21.3782
-21.5161
-21.6759
-21.8668
-22.098
-22.3756
-22.704
-23.0846
-23.5152
-23.9967
-24.539
-25.1525
-25.8339
-26.5533
-27.2568
-27.8734
-28.3259
-28.5627
-27.3579
-27.0812
-26.586
-25.9758
-25.3482
-24.7591
-24.2361
-23.7865
-23.3978
-23.0516
-22.7356
-22.4511
-22.2039
-21.994
-21.8196
-21.6769
-21.5577
-21.4528
-21.3552
-21.2628
-21.1753
-21.0935
-21.0205
-20.9585
-20.9067
-20.8624
-20.8232
-20.7883
-20.7578
-20.7319
-20.7113
-20.6971
-20.6892
-20.6875
-20.6914
-20.7001
-20.7131
-20.7302
-20.7512
-20.7769
-20.8097
-20.8529
-20.9097
-20.9815
-21.0692
-21.1726
-21.2893
-21.4193
-21.5698
-21.7526
-21.9794
-22.2573
-22.5911
-22.9831
-23.4279
-23.925
-24.4911
-25.1464
-25.8951
-26.7043
-27.5099
-28.2258
-28.7508
-29.0236
-27.787
-27.4515
-26.8539
-26.1347
-25.4198
-24.7677
-24.2051
-23.7368
-23.3407
-22.9893
-22.6643
-22.3707
-22.119
-21.9085
-21.7373
-21.6018
-21.4913
-21.3941
-21.3014
-21.2115
-21.1251
-21.043
-20.9698
-20.9095
-20.8603
-20.8187
-20.781
-20.7469
-20.7166
-20.6902
-20.669
-20.6542
-20.646
-20.644
-20.6475
-20.6554
-20.6669
-20.6818
-20.6995
-20.7204
-20.7475
-20.7851
-20.837
-20.9047
-20.9888
-21.0894
-21.2012
-21.322
-21.4611
-21.6337
-21.8549
-22.1319
-22.4705
-22.8745
-23.3328
-23.8414
-24.426
-25.1204
-25.9406
-26.8495
-27.7712
-28.6038
-29.2115
-29.523
-28.2632
-27.8572
-27.1341
-26.2859
-25.4758
-24.7583
-24.1568
-23.675
-23.2772
-22.9242
-22.5897
-22.2854
-22.0296
-21.8189
-21.6514
-21.5249
-21.4251
-21.337
-21.2491
-21.1615
-21.0762
-20.9928
-20.9187
-20.8602
-20.8144
-20.7759
-20.7398
-20.7064
-20.6762
-20.6491
-20.6269
-20.6117
-20.6033
-20.6012
-20.6045
-20.6118
-20.6219
-20.6347
-20.6492
-20.6649
-20.6858
-20.7172
-20.7642
-20.8278
-20.9085
-21.0073
-21.1149
-21.2252
-21.3504
-21.5101
-21.7245
-21.9996
-22.3421
-22.7598
-23.2319
-23.7462
-24.3419
-25.0706
-25.9666
-26.9856
-28.0387
-29.0095
-29.7103
-30.062
-28.7918
-28.3022
-27.4246
-26.4237
-25.5127
-24.7284
-24.0889
-23.6005
-23.2082
-22.8586
-22.5128
-22.1949
-21.9358
-21.7253
-21.5617
-21.4463
-21.3594
-21.2821
-21.1988
-21.1132
-21.0288
-20.9429
-20.8668
-20.8105
-20.7689
-20.7343
-20.6998
-20.6668
-20.6368
-20.6086
-20.5853
-20.5696
-20.5612
-20.5591
-20.5624
-20.5694
-20.5782
-20.5892
-20.6006
-20.6107
-20.6247
-20.6492
-20.6915
-20.7509
-20.8283
-20.9271
-21.0317
-21.1297
-21.2382
-21.382
-21.5887
-21.8608
-22.2056
-22.6401
-23.1275
-23.6404
-24.2374
-24.9927
-25.9693
-27.1097
-28.3092
-29.4462
-30.2502
-30.6408
-29.3778
-28.7917
-27.7227
-26.5407
-25.5269
-24.6758
-23.9989
-23.5134
-23.135
-22.7949
-22.4345
-22.0986
-21.8379
-21.6279
-21.4678
-21.3663
-21.2949
-21.2305
-21.151
-21.0665
-20.9836
-20.8934
-20.8137
-20.7605
-20.7241
-20.6943
-20.6611
-20.6283
-20.5986
-20.569
-20.544
-20.528
-20.5196
-20.5177
-20.5214
-20.5283
-20.5358
-20.5454
-20.5542
-20.5581
-20.5644
-20.5811
-20.6188
-20.6743
-20.7479
-20.8491
-20.9531
-21.0364
-21.1248
-21.2488
-21.4479
-21.716
-22.06
-22.5166
-23.0232
-23.5251
-24.1113
-24.8818
-25.9447
-27.2186
-28.5784
-29.9184
-30.8346
-31.2588
-30.0265
-29.3325
-28.0248
-26.6273
-25.516
-24.599
-23.8841
-23.4137
-23.0591
-22.737
-22.3557
-21.9951
-21.7365
-21.527
-21.369
-21.2851
-21.2319
-21.1832
-21.1059
-21.0216
-20.9412
-20.8444
-20.7588
-20.7099
-20.68
-20.6564
-20.6238
-20.5907
-20.5619
-20.5302
-20.503
-20.4869
-20.4787
-20.4771
-20.4814
-20.4887
-20.4947
-20.5035
-20.5103
-20.5072
-20.5049
-20.5125
-20.5465
-20.598
-20.6666
-20.774
-20.8807
-20.9463
-21.0108
-21.1101
-21.3026
-21.5657
-21.9038
-22.3909
-22.924
-23.402
-23.9627
-24.7316
-25.8894
-27.3097
-28.8388
-30.4337
-31.4675
-31.9137
-30.7424
-29.934
-28.3261
-26.671
-25.4786
-24.4977
-23.7404
-23.3024
-22.9818
-22.6894
-22.2773
-21.8819
-21.6325
-21.4233
-21.2641
-21.203
-21.1709
-21.1417
-21.0635
-20.9778
-20.9027
-20.7957
-20.701
-20.6587
-20.6368
-20.6212
-20.588
-20.5541
-20.527
-20.4922
-20.4621
-20.4462
-20.4385
-20.4372
-20.4426
-20.4508
-20.4549
-20.4635
-20.4694
-20.4582
-20.4464
-20.4431
-20.4748
-20.5225
-20.5833
-20.7021
-20.8169
-20.8601
-20.8967
-20.9643
-21.1537
-21.4115
-21.7337
-22.2641
-22.8364
-23.2726
-23.7917
-24.5344
-25.8002
-27.3817
-29.0791
-31.0035
-32.1537
-32.6016
-31.529
-30.6098
-28.6202
-26.6547
-25.416
-24.3724
-23.5627
-23.1808
-22.9041
-22.6587
-22.2001
-21.7552
-21.5278
-21.3175
-21.1513
-21.1207
-21.112
-21.108
-21.0237
-20.9345
-20.8697
-20.7474
-20.6389
-20.607
-20.5944
-20.5895
-20.5537
-20.5179
-20.4944
-20.4551
-20.4209
-20.4061
-20.3989
-20.3979
-20.4049
-20.4147
-20.416
-20.4253
-20.4322
-20.4112
-20.3891
-20.3721
-20.4038
-20.4484
-20.4962
-20.6336
-20.7646
-20.7782
-20.7835
-20.8094
-21.0025
-21.2556
-21.5447
-22.1373
-22.7693
-23.1382
-23.5998
-24.2798
-25.6749
-27.4357
-29.2806
-31.6455
-32.8984
-33.3161
-32.3872
-31.379
-28.8989
-26.5556
-25.3333
-24.2254
-23.3435
-23.0522
-22.8261
-22.6537
-22.1245
-21.6089
-21.4254
-21.2111
-21.0277
-21.0391
-21.055
-21.0847
-20.986
-20.8901
-20.8444
-20.6994
-20.5706
-20.555
-20.5528
-20.5625
-20.5206
-20.4817
-20.4647
-20.4188
-20.379
-20.3666
-20.3601
-20.3592
-20.3683
-20.3811
-20.3776
-20.3889
-20.3996
-20.3662
-20.3335
-20.2984
-20.3343
-20.3769
-20.4024
-20.5686
-20.7279
-20.7006
-20.6725
-20.6419
-20.8507
-21.1021
-21.3289
-22.0114
-22.7351
-22.9989
-23.3908
-23.9541
-25.5127
-27.4774
-29.4139
-32.3869
-33.7067
-34.0478
-33.3144
-32.2692
-29.1512
-26.3434
-25.2417
-24.0608
-23.0717
-22.9221
-22.7459
-22.686
-22.0506
-21.434
-21.3305
-21.1059
-20.8889
-20.9605
-20.9989
-21.0757
-20.9495
-20.8422
-20.8305
-20.6516
-20.4932
-20.5037
-20.5116
-20.5419
-20.4885
-20.4445
-20.4392
-20.3832
-20.3358
-20.328
-20.3222
-20.3209
-20.3326
-20.3503
-20.3392
-20.3538
-20.3729
-20.3228
-20.2804
-20.2203
-20.2668
-20.3101
-20.2978
-20.5069
-20.7121
-20.6263
-20.5665
-20.4564
-20.7007
-20.9575
-21.0746
-21.8864
-22.7503
-22.8521
-23.1724
-23.5379
-25.3147
-27.5197
-29.4332
-33.2692
-34.5828
-34.7838
-34.3022
-33.3194
-29.3628
-25.9767
-25.1611
-23.8846
-22.731
-22.7999
-22.6579
-22.772
-21.9781
-21.2175
-21.2511
-21.0044
-20.7283
-20.8883
-20.9414
-21.0865
-20.9127
-20.7871
-20.8331
-20.6037
-20.4029
-20.4546
-20.4699
-20.53
-20.4567
-20.4052
-20.4194
-20.3482
-20.2906
-20.2907
-20.2854
-20.283
-20.2978
-20.3235
-20.2998
-20.3198
-20.3538
-20.2805
-20.2311
-20.1352
-20.2024
-20.2513
-20.1764
-20.4482
-20.7247
-20.5528
-20.4696
-20.2448
-20.5559
-20.8323
-20.7646
-21.7618
-22.8377
-22.6907
-22.9588
-23.0043
-25.0837
-27.5875
-29.2679
-34.3547
-35.5279
-35.5074
-35.334
-34.5847
-29.5154
-25.4005
-25.1238
-23.705
-22.298
-22.7012
-22.5515
-22.9337
-21.9058
-20.9407
-21.1994
-20.9098
-20.5365
-20.8284
-20.8784
-21.1246
-20.8732
-20.7194
-20.8597
-20.5554
-20.2942
-20.4108
-20.426
-20.5304
-20.4243
-20.3618
-20.408
-20.3135
-20.2422
-20.2555
-20.2498
-20.2451
-20.2635
-20.3022
-20.2582
-20.2859
-20.3448
-20.2378
-20.1879
-20.0395
-20.1424
-20.2057
-20.0298
-20.3916
-20.776
-20.4747
-20.3892
-19.9955
-20.4203
-20.7425
-20.3749
-21.6358
-23.0283
-22.5001
-22.7735
-22.3155
-24.8253
-27.7239
-28.812
-35.7358
-36.5373
-36.1982
-36.382
-36.1414
-29.585
-24.5417
-25.1791
-23.5321
-21.7387
-22.6508
-22.4073
-23.2014
-21.8316
-20.578
-21.1939
-20.8259
-20.2997
-20.7904
-20.8026
-21.201
-20.8277
-20.6311
-20.9207
-20.5058
-20.1601
-20.377
-20.377
-20.5476
-20.3899
-20.3115
-20.4083
-20.2785
-20.1892
-20.2233
-20.2158
-20.207
-20.2291
-20.2884
-20.2127
-20.2511
-20.3496
-20.1926
-20.1545
-19.9278
-20.0881
-20.1814
-19.8465
-20.3358
-20.8801
-20.3828
-20.337
-19.6915
-20.2989
-20.7117
-19.8716
-21.5047
-23.3646
-22.2539
-22.6542
-21.4187
-24.5466
-27.9985
-27.9093
-37.547
-37.5953
-36.832
-37.4031
-38.0934
-29.5407
-23.3036
-25.3988
-23.3774
-21.0054
-22.6869
-22.1938
-23.6161
-21.7523
-20.0941
-21.2605
-20.7574
-19.9988
-20.7891
-20.702
-21.3307
-20.7714
-20.5112
-21.0306
-20.4533
-19.9905
-20.3606
-20.3177
-20.5881
-20.3513
-20.2507
-20.4252
-20.2422
-20.1294
-20.1956
-20.1833
-20.1683
-20.1935
-20.2852
-20.1609
-20.2135
-20.3729
-20.1406
-20.1363
-19.7927
-20.0412
-20.1894
-19.6109
-20.2784
-21.0561
-20.2622
-20.3308
-19.3089
-20.197
-20.7738
-19.209
-21.3628
-23.904
-21.9082
-22.6594
-20.2411
-24.256
-28.5196
-26.3342
-39.9819
-38.6679
-37.3824
-38.3348
-40.5802
-29.343
-21.5604
-25.884
-23.2528
-20.0323
-22.8666
-21.8617
-24.233
-21.6626
-19.4419
-21.4359
-20.7089
-19.6071
-20.8463
-20.5579
-21.5342
-20.6974
-20.3442
-21.2093
-20.3954
-19.7724
-20.3723
-20.2399
-20.6608
-20.3052
-20.174
-20.4653
-20.2026
-20.0602
-20.1743
-20.1524
-20.1286
-20.155
-20.2965
-20.0995
-20.1703
-20.4215
-20.0757
-20.1415
-19.6237
-20.003
-20.2456
-19.302
-20.2161
-21.3297
-20.0891
-20.3977
-18.8149
-20.1203
-20.9764
-18.3259
-21.2011
-24.724
-21.394
-22.8759
-18.6832
-23.9611
-29.4488
-23.7677
-43.3129
-39.6935
-37.8226
-39.0895
-43.7856
-28.9419
-19.1502
-26.7734
-23.1694
-18.73
-23.2729
-21.3373
-25.1256
-21.5551
-18.5593
-21.7699
-20.6852
-19.0886
-20.9941
-20.3424
-21.8397
-20.5966
-20.1094
-21.4826
-20.328
-19.4884
-20.4279
-20.1314
-20.7774
-20.2469
-20.0744
-20.5371
-20.157
-19.9778
-20.1617
-20.1225
-20.087
-20.1106
-20.3276
-20.0238
-20.1175
-20.504
-19.9879
-20.1818
-19.4066
-19.9744
-20.3715
-18.8921
-20.1439
-21.7353
-19.8285
-20.5769
-18.165
-20.0742
-21.3845
-17.1419
-21.0065
-25.9281
-20.6077
-23.4295
-16.612
-23.6658
-31.0203
-19.7676
-47.918
-40.5689
-38.1284
-39.5492
-47.9477
-28.2748
-15.8676
-28.2527
-23.1367
-16.9808
-24.0239
-20.5156
-26.3921
-21.4201
-17.367
-22.3299
-20.6912
-18.3963
-21.2785
-20.016
-22.2854
-20.4578
-19.7806
-21.8857
-20.2457
-19.1169
-20.5502
-19.9747
-20.9549
-20.171
-19.9433
-20.653
-20.102
-19.8785
-20.1622
-20.0936
-20.0439
-20.0573
-20.3865
-19.929
-20.0505
-20.6334
-19.8643
-20.2744
-19.1237
-19.9566
-20.597
-18.3468
-20.0558
-22.3193
-19.4307
-20.925
-17.301
-20.0638
-22.0859
-15.5547
-20.7612
-27.6539
-19.4002
-24.4982
-13.8529
-23.3667
-33.5645
-13.7342
-54.3119
-41.1334
-38.2834
)
;

boundaryField
{
    left
    {
        type            calculated;
        value           nonuniform List<scalar> 
32
(
-24.5222
-24.5482
-24.5981
-24.6703
-24.7639
-24.8782
-25.0133
-25.1697
-25.3481
-25.5497
-25.7759
-26.0287
-26.3103
-26.6235
-26.9715
-27.3579
-27.787
-28.2632
-28.7918
-29.3778
-30.0265
-30.7424
-31.529
-32.3872
-33.3144
-34.3022
-35.334
-36.382
-37.4031
-38.3348
-39.0895
-39.5492
)
;
    }
    right
    {
        type            calculated;
        value           nonuniform List<scalar> 
32
(
-25.4345
-25.4691
-25.5356
-25.6316
-25.7557
-25.907
-26.0852
-26.2904
-26.5233
-26.7846
-27.0754
-27.3971
-27.7511
-28.1391
-28.5627
-29.0236
-29.523
-30.062
-30.6408
-31.2588
-31.9137
-32.6016
-33.3161
-34.0478
-34.7838
-35.5074
-36.1982
-36.832
-37.3824
-37.8226
-38.1284
-38.2834
)
;
    }
    interface
    {
        type            calculated;
        value           nonuniform List<scalar> 
64
(
-39.6885
-50.3014
-27.8661
-13.9796
-29.1664
-23.1339
-15.9777
-24.5029
-20.015
-27.1327
-21.3444
-16.6824
-22.6762
-20.7024
-18.0001
-21.4617
-19.8194
-22.5489
-20.3774
-19.589
-22.1248
-20.2003
-18.9063
-20.6314
-19.882
-21.0614
-20.1281
-19.8689
-20.7239
-20.0718
-19.8243
-20.1663
-20.0796
-20.0221
-20.028
-20.4241
-19.8763
-20.0129
-20.7118
-19.7916
-20.3365
-18.9633
-19.9506
-20.739
-18.0356
-20.007
-22.6627
-19.1903
-21.1498
-16.8074
-20.0682
-22.5225
-14.6461
-20.6234
-28.667
-18.6693
-25.1873
-12.2768
-23.2151
-35.128
-10.1231
-58.0302
-41.3136
-38.3218
)
;
    }
    bottom
    {
        type            calculated;
        value           nonuniform List<scalar> 
64
(
-24.5155
-24.4828
-24.4189
-24.3263
-24.2084
-24.0693
-23.9136
-23.7457
-23.5698
-23.3899
-23.2092
-23.0307
-22.8566
-22.6887
-22.5285
-22.3769
-22.2345
-22.1016
-21.9785
-21.865
-21.7611
-21.6667
-21.5815
-21.5053
-21.4379
-21.3791
-21.3287
-21.2867
-21.2528
-21.2271
-21.2096
-21.2002
-21.1992
-21.2065
-21.2225
-21.2475
-21.2817
-21.3255
-21.3794
-21.444
-21.5197
-21.6072
-21.707
-21.8196
-21.9457
-22.0856
-22.2397
-22.408
-22.5905
-22.7867
-22.9958
-23.2163
-23.4465
-23.6835
-23.9241
-24.1644
-24.3993
-24.6237
-24.8317
-25.0171
-25.1742
-25.2974
-25.3823
-25.4256
)
;
    }
    defaultFaces
    {
        type            empty;
    }
}


// ************************************************************************* //
