/*--------------------------------*- C++ -*----------------------------------*\
| =========                 |                                                 |
| \\      /  F ield         | OpenFOAM: The Open Source CFD Toolbox           |
|  \\    /   O peration     | Version:  5.x                                   |
|   \\  /    A nd           | Web:      www.OpenFOAM.org                      |
|    \\/     M anipulation  |                                                 |
\*---------------------------------------------------------------------------*/
FoamFile
{
    version     2.0;
    format      ascii;
    class       volScalarField;
    location    "0.9";
    object      gradTx;
}
// * * * * * * * * * * * * * * * * * * * * * * * * * * * * * * * * * * * * * //

dimensions      [0 -1 0 1 0 0 0];

internalField   nonuniform List<scalar> 
2048
(
0.0074988
0.0221943
0.0359963
0.048408
0.0590716
0.0677612
0.0743991
0.0790334
0.0818034
0.0829091
0.0825832
0.0810692
0.078605
0.0754116
0.0716861
0.0675977
0.0632857
0.0588594
0.0544005
0.0499664
0.0455944
0.0413067
0.0371134
0.0330168
0.0290126
0.0250919
0.0212416
0.0174456
0.013685
0.00993887
0.00618448
0.00239788
-0.00144614
-0.00537399
-0.00941315
-0.0135919
-0.0179388
-0.0224813
-0.027245
-0.0322513
-0.0375157
-0.0430461
-0.0488401
-0.0548835
-0.0611467
-0.0675819
-0.074118
-0.0806562
-0.0870642
-0.0931721
-0.0987697
-0.103607
-0.107396
-0.109821
-0.110548
-0.109246
-0.10561
-0.0993918
-0.0904415
-0.0787398
-0.064431
-0.0478391
-0.0294633
-0.00995117
0.0224226
0.0663484
0.107564
0.144564
0.176268
0.202021
0.221607
0.235193
0.243217
0.246293
0.245129
0.240456
0.232989
0.223385
0.212231
0.20003
0.187192
0.174038
0.160809
0.147669
0.134726
0.122042
0.109643
0.0975355
0.085705
0.0741245
0.0627551
0.0515483
0.0404479
0.0293915
0.0183119
0.007138
-0.00420466
-0.0157942
-0.0277122
-0.0400427
-0.0528709
-0.0662795
-0.0803451
-0.0951326
-0.11069
-0.127041
-0.144183
-0.162073
-0.180629
-0.199713
-0.219118
-0.238556
-0.257641
-0.275871
-0.292627
-0.307164
-0.318628
-0.326072
-0.328497
-0.3249
-0.314353
-0.296096
-0.269651
-0.234938
-0.192368
-0.142904
-0.0880428
-0.0297415
0.0374019
0.110622
0.17919
0.240538
0.292855
0.335084
0.366934
0.388752
0.401336
0.405761
0.40324
0.395009
0.382258
0.366081
0.347445
0.327173
0.305937
0.284258
0.262515
0.240969
0.219783
0.199046
0.178797
0.159038
0.139743
0.120866
0.102341
0.0840891
0.0660158
0.0480183
0.0299862
0.0118031
-0.00665255
-0.0255086
-0.0448986
-0.0649616
-0.0858389
-0.107669
-0.130583
-0.154689
-0.180072
-0.206776
-0.234801
-0.264086
-0.294503
-0.325838
-0.357768
-0.389837
-0.421423
-0.451718
-0.479706
-0.504167
-0.523686
-0.536687
-0.541491
-0.536402
-0.51982
-0.490411
-0.447296
-0.390262
-0.319938
-0.237901
-0.146668
-0.0495618
0.0528432
0.156186
0.252678
0.338587
0.411339
0.469526
0.51287
0.542012
0.558213
0.563092
0.558418
0.545962
0.527403
0.50427
0.477908
0.449455
0.419828
0.389731
0.359667
0.329968
0.300834
0.27237
0.244611
0.217551
0.191149
0.165337
0.140025
0.115098
0.0904262
0.0658655
0.0412633
0.0164598
-0.00871166
-0.034426
-0.0608675
-0.0882292
-0.11671
-0.146507
-0.177806
-0.210769
-0.245519
-0.282127
-0.320602
-0.360874
-0.402784
-0.44606
-0.490287
-0.534864
-0.578967
-0.6215
-0.661077
-0.696007
-0.724318
-0.743794
-0.752049
-0.746636
-0.725206
-0.685737
-0.626826
-0.548009
-0.450048
-0.335117
-0.206802
-0.0699156
0.0691169
0.204103
0.329647
0.440697
0.53388
0.607504
0.661443
0.696795
0.715431
0.719625
0.711774
0.694216
0.669135
0.6385
0.60403
0.567171
0.529075
0.49061
0.452375
0.414752
0.377952
0.342072
0.307135
0.273116
0.239958
0.207572
0.175838
0.144609
0.113715
0.0829725
0.052186
0.0211544
-0.0103312
-0.0424902
-0.0755553
-0.109774
-0.145403
-0.182704
-0.221923
-0.26328
-0.306945
-0.353022
-0.401536
-0.452418
-0.505494
-0.560455
-0.616821
-0.673885
-0.730651
-0.785769
-0.837496
-0.883687
-0.921808
-0.948985
-0.962089
-0.95785
-0.93306
-0.884856
-0.81113
-0.710994
-0.585224
-0.436562
-0.269741
-0.0912513
0.0865846
0.255401
0.411636
0.548708
0.662406
0.750864
0.81431
0.854521
0.874172
0.876327
0.864084
0.840387
0.80793
0.769126
0.726067
0.680501
0.633804
0.586986
0.540717
0.495392
0.451204
0.408218
0.366428
0.325786
0.286217
0.247609
0.209817
0.172656
0.135917
0.0993728
0.062786
0.0259164
-0.0114834
-0.0496736
-0.088933
-0.129562
-0.171881
-0.216217
-0.262887
-0.312176
-0.364309
-0.41943
-0.477587
-0.538721
-0.602655
-0.66907
-0.737456
-0.807042
-0.8767
-0.94486
-1.00945
-1.06788
-1.11704
-1.15339
-1.17302
-1.17176
-1.14541
-1.09007
-1.00269
-0.881712
-0.727757
-0.544089
-0.336693
-0.113988
0.105619
0.311128
0.500179
0.664394
0.798695
0.90122
0.972828
1.01627
1.03528
1.03384
1.01585
0.984851
0.944066
0.896342
0.844145
0.789524
0.734068
0.678906
0.624744
0.571949
0.520659
0.470879
0.422558
0.375621
0.329976
0.285494
0.242002
0.199278
0.157067
0.115096
0.0730866
0.030762
-0.0121594
-0.055973
-0.101
-0.147595
-0.19614
-0.247039
-0.300688
-0.357447
-0.417605
-0.481353
-0.548765
-0.6198
-0.694291
-0.771932
-0.852225
-0.934383
-1.0172
-1.09893
-1.1772
-1.24897
-1.31057
-1.35777
-1.38584
-1.38965
-1.36387
-1.30332
-1.20369
-1.06244
-0.879806
-0.659478
-0.408831
-0.138537
0.126622
0.372398
0.596869
0.789527
0.944434
1.05999
1.13809
1.18283
1.19928
1.19254
1.16731
1.12779
1.07766
1.02022
0.958289
0.894237
0.829858
0.766374
0.704484
0.644478
0.586391
0.530137
0.475604
0.422689
0.371293
0.321276
0.272437
0.224514
0.177198
0.130169
0.0831049
0.0356962
-0.0123657
-0.0614052
-0.111781
-0.163897
-0.218207
-0.275194
-0.335346
-0.399112
-0.466856
-0.538821
-0.61511
-0.695696
-0.780433
-0.869055
-0.961118
-1.05588
-1.15214
-1.248
-1.34082
-1.42712
-1.50266
-1.56252
-1.60114
-1.61239
-1.58964
-1.52619
-1.41607
-1.25534
-1.04347
-0.784503
-0.487339
-0.165312
0.15004
0.440434
0.703409
0.925926
1.10124
1.22843
1.31092
1.35467
1.36642
1.35252
1.31854
1.26923
1.20872
1.14071
1.06844
0.994572
0.921118
0.849366
0.779954
0.713035
0.648485
0.586087
0.525655
0.467067
0.41023
0.355005
0.301167
0.248403
0.196346
0.144617
0.0928537
0.0407162
-0.0121219
-0.0660038
-0.121318
-0.17852
-0.238131
-0.300729
-0.366905
-0.437215
-0.51211
-0.591891
-0.676684
-0.766472
-0.861131
-0.960452
-1.0641
-1.17146
-1.2814
-1.39196
-1.50022
-1.60229
-1.69335
-1.76777
-1.8192
-1.84048
-1.82361
-1.76001
-1.6416
-1.46245
-1.22085
-0.920971
-0.573435
-0.194742
0.176379
0.516611
0.821662
1.07549
1.27071
1.40763
1.49192
1.53201
1.53667
1.5137
1.46943
1.40906
1.33713
1.25772
1.17448
1.09041
1.00776
0.927837
0.851169
0.777687
0.70704
0.638842
0.572815
0.508836
0.446848
0.386732
0.328237
0.270988
0.214548
0.158469
0.102344
0.045813
-0.0114573
-0.0698167
-0.129675
-0.191531
-0.255983
-0.32371
-0.395427
-0.471815
-0.553434
-0.64064
-0.733578
-0.83222
-0.936454
-1.04615
-1.16113
-1.281
-1.40481
-1.5306
-1.65522
-1.77433
-1.88249
-1.97341
-2.03999
-2.07411
-2.0663
-2.00585
-1.88189
-1.68581
-1.41409
-1.07076
-0.668391
-0.227276
0.206224
0.602498
0.9537
1.24024
1.45438
1.5985
1.68142
1.71475
1.70977
1.67576
1.61973
1.54713
1.46276
1.3711
1.27624
1.1816
1.08965
1.00173
0.918145
0.838513
0.762179
0.688531
0.617198
0.548083
0.48121
0.416505
0.353692
0.292315
0.231843
0.171752
0.111586
0.0509734
-0.0104098
-0.0729032
-0.136925
-0.203016
-0.27185
-0.344221
-0.420988
-0.502988
-0.590906
-0.685167
-0.785906
-0.89306
-1.00651
-1.12618
-1.25215
-1.38435
-1.52215
-1.66367
-1.80555
-1.94295
-2.0698
-2.17914
-2.2632
-2.31308
-2.31792
-2.26448
-2.13841
-1.92744
-1.62541
-1.23586
-0.773552
-0.263383
0.240258
0.699902
1.10185
1.42231
1.65374
1.80176
1.87946
1.90252
1.88518
1.83825
1.76912
1.6832
1.58542
1.48067
1.37354
1.26795
1.16666
1.07098
0.980907
0.895614
0.814046
0.735311
0.658933
0.584896
0.513372
0.444371
0.377579
0.312431
0.248277
0.1845
0.120592
0.0561818
-0.00902341
-0.0753324
-0.143157
-0.213073
-0.285834
-0.36236
-0.443677
-0.530815
-0.624619
-0.725582
-0.833808
-0.949149
-1.07143
-1.20064
-1.33712
-1.48135
-1.63315
-1.79087
-1.95089
-2.10783
-2.25491
-2.38449
-2.48827
-2.55692
-2.57832
-2.53642
-2.41248
-2.18934
-1.85714
-1.41838
-0.890329
-0.303554
0.279275
0.810922
1.26874
1.62399
1.87025
2.01793
2.08581
2.09463
2.06213
2.00057
1.91724
1.81706
1.70494
1.58624
1.46617
1.34925
1.23861
1.13552
1.0395
0.949116
0.862816
0.779361
0.698161
0.619361
0.543384
0.470369
0.399944
0.331387
0.2639
0.196752
0.129377
0.0614211
-0.00734703
-0.0771809
-0.148469
-0.221812
-0.298048
-0.378234
-0.463588
-0.555381
-0.654667
-0.762011
-0.877445
-1.00068
-1.1314
-1.26964
-1.41604
-1.57181
-1.73752
-1.91184
-2.09089
-2.2686
-2.43742
-2.5889
-2.71444
-2.80477
-2.84697
-2.82192
-2.70531
-2.47356
-2.11175
-1.62054
-1.02019
-0.348283
0.324205
0.938001
1.45735
1.84771
2.10522
2.24726
2.2999
2.2901
2.23962
2.162
2.0637
1.94849
1.82116
1.68765
1.55391
1.42527
1.30535
1.1953
1.09398
0.999173
0.908695
0.82089
0.735038
0.651558
0.571282
0.494531
0.420831
0.349238
0.278767
0.208552
0.137958
0.0666738
-0.00543349
-0.078532
-0.152966
-0.229353
-0.308618
-0.391961
-0.480821
-0.576773
-0.681143
-0.794586
-0.917001
-1.04786
-1.18667
-1.33334
-1.48891
-1.65555
-1.83495
-2.02625
-2.22521
-2.42493
-2.61691
-2.79177
-2.94076
-3.05547
-3.12298
-3.12088
-3.01796
-2.7822
-2.39187
-1.84475
-1.16465
-0.398056
0.376126
1.08398
1.67109
2.09605
2.35983
2.48972
2.52084
2.48759
2.41644
2.32178
2.2082
2.07738
1.93395
1.78473
1.63657
1.49576
1.36667
1.25026
1.14445
1.04597
0.951923
0.860141
0.769728
0.681557
0.597083
0.516879
0.440289
0.366044
0.292941
0.219953
0.146358
0.0719219
-0.00333848
-0.0794732
-0.15676
-0.235821
-0.317677
-0.403672
-0.495481
-0.59507
-0.704136
-0.823442
-0.952672
-1.09097
-1.23753
-1.39201
-1.55577
-1.73237
-1.92509
-2.13373
-2.35352
-2.57649
-2.79304
-2.99253
-3.16611
-3.30747
-3.40498
-3.43291
-3.35136
-3.11737
-2.70033
-2.09359
-1.32518
-0.453308
0.43627
1.25216
1.91386
2.37168
2.63503
2.74498
2.7474
2.68548
2.59113
2.47912
2.35051
2.20367
2.04323
1.87738
1.71392
1.56045
1.42236
1.30035
1.19103
1.08971
0.992768
0.897393
0.802409
0.709405
0.620779
0.537426
0.458369
0.381869
0.306489
0.231017
0.154606
0.0771472
-0.00111986
-0.0800957
-0.159967
-0.241348
-0.325366
-0.413504
-0.507672
-0.610342
-0.723722
-0.848714
-0.984668
-1.13026
-1.28432
-1.44596
-1.61671
-1.80208
-2.00758
-2.23393
-2.47552
-2.723
-2.96557
-3.1907
-3.38929
-3.5589
-3.69118
-3.75726
-3.70628
-3.48122
-3.04023
-2.36979
-1.5032
-0.514378
0.506016
1.44637
2.19012
2.67734
2.93144
3.01237
2.97803
2.88179
2.76206
2.63321
2.49059
2.32743
2.14897
1.96552
1.78577
1.61904
1.47218
1.34556
1.23389
1.13064
1.03153
0.93297
0.83327
0.735122
0.642329
0.556174
0.475132
0.396784
0.319487
0.241817
0.162733
0.0823304
0.00116303
-0.0804923
-0.162706
-0.246065
-0.331833
-0.421611
-0.517503
-0.622646
-0.739961
-0.870534
-1.01321
-1.16604
-1.32747
-1.49562
-1.67188
-1.86442
-2.08201
-2.32651
-2.59098
-2.86423
-3.13439
-3.38601
-3.60904
-3.80748
-3.97924
-4.09281
-4.08338
-3.87593
-3.41492
-2.67637
-1.69988
-0.581426
0.586858
1.67099
2.50505
3.01577
3.24918
3.29091
3.21087
3.07422
2.92738
2.78335
2.62867
2.44887
2.25111
2.04912
1.85196
1.67119
1.51586
1.38588
1.27325
1.169
1.06853
0.967254
0.86251
0.758689
0.661655
0.573118
0.490655
0.410861
0.332009
0.252443
0.170781
0.0874487
0.00345016
-0.0807563
-0.165098
-0.2501
-0.337229
-0.428162
-0.525087
-0.632019
-0.752885
-0.889028
-1.03851
-1.19858
-1.36743
-1.54153
-1.72145
-1.91913
-2.1479
-2.41113
-2.69969
-2.99994
-3.29956
-3.57849
-3.8241
-4.05053
-4.26627
-4.43807
-4.48322
-4.30356
-3.82816
-3.01662
-1.91607
-0.654328
0.680325
1.93105
2.86471
3.38956
3.58777
3.57931
3.44383
3.26012
3.08502
2.92891
2.7653
2.5683
2.34961
2.12824
1.91235
1.7165
1.55309
1.42134
1.30942
1.20503
1.10409
1.0007
0.890338
0.780028
0.678626
0.58825
0.505039
0.424173
0.344133
0.262998
0.178792
0.0924741
0.00568194
-0.0809799
-0.167264
-0.253576
-0.341706
-0.433351
-0.53054
-0.638477
-0.7625
-0.904321
-1.06083
-1.22814
-1.40472
-1.58443
-1.76568
-1.96586
-2.20473
-2.48753
-2.8016
-3.12989
-3.4613
-3.76864
-4.0333
-4.28495
-4.54877
-4.79119
-4.90627
-4.76604
-4.28417
-3.39428
-2.15196
-0.732527
0.787833
2.2322
3.27627
3.80104
3.94578
3.87612
3.67464
3.43653
3.23267
3.06938
2.90153
2.68614
2.44429
2.20305
1.96682
1.75451
1.58351
1.45201
1.3428
1.23896
1.13855
1.03387
0.916972
0.79899
0.693057
0.60156
0.518429
0.436786
0.355925
0.273615
0.186814
0.0973679
0.00780118
-0.0812519
-0.16933
-0.256602
-0.34541
-0.437404
-0.533987
-0.642006
-0.768766
-0.916537
-1.0804
-1.2549
-1.4399
-1.62522
-1.80487
-2.00419
-2.25184
-2.55546
-2.89674
-3.2537
-3.62001
-3.95758
-4.23555
-4.50716
-4.82251
-5.15
-5.3531
-5.26485
-4.78774
-3.81373
-2.40685
-0.814846
0.910436
2.58074
3.74841
4.252
4.32063
4.17992
3.90095
3.6001
3.36777
3.20446
3.03904
2.80287
2.53479
2.27387
2.01533
1.78465
1.60665
1.47801
1.37394
1.27092
1.17217
1.06747
0.942635
0.815328
0.7047
0.613046
0.53103
0.448747
0.367439
0.284461
0.194899
0.102075
0.00975627
-0.0816554
-0.171425
-0.259264
-0.348474
-0.440593
-0.535564
-0.642559
-0.771596
-0.925804
-1.09753
-1.27893
-1.47352
-1.66512
-1.83942
-2.03358
-2.28848
-2.61476
-2.9854
-3.37073
-3.77617
-4.14734
-4.42998
-4.7131
-5.0825
-5.51199
-5.82449
-5.8007
-5.34448
-4.28032
-2.67859
-0.899258
1.04843
2.98358
4.29176
4.74339
4.7081
4.48957
4.12044
3.74709
3.48747
3.33396
3.18037
2.91895
2.62039
2.34131
2.0579
1.80622
1.62199
1.49951
1.40361
1.30093
1.20518
1.10242
0.967545
0.828672
0.713232
0.62272
0.543136
0.460069
0.378697
0.295757
0.203092
0.106516
0.0115062
-0.0822644
-0.173696
-0.261621
-0.351006
-0.443253
-0.535417
-0.640051
-0.770835
-0.93226
-1.11259
-1.30011
-1.5061
-1.7057
-1.86974
-2.05331
-2.31367
-2.66539
-3.06819
-3.4799
-3.9303
-4.34108
-4.61589
-4.89816
-5.32287
-5.87439
-6.32183
-6.37298
-5.96097
-4.80087
-2.96303
-0.982625
1.20077
3.44813
4.9197
5.27489
5.10187
4.80475
4.33092
3.87332
3.58857
3.45786
3.3292
3.0347
2.69982
2.40638
2.09465
1.81836
1.62888
1.51674
1.43288
1.32877
1.23766
1.13994
0.991899
0.838495
0.71826
0.630611
0.555172
0.470698
0.389677
0.307803
0.211433
0.110573
0.0130285
-0.0831386
-0.176309
-0.263692
-0.353068
-0.445814
-0.533708
-0.634357
-0.766247
-0.93606
-1.12611
-1.31804
-1.5381
-1.74903
-1.89629
-2.06251
-2.32625
-2.70737
-3.14628
-3.57945
-4.08275
-4.5436
-4.79278
-5.05717
-5.53675
-6.23415
-6.84758
-6.97885
-6.64513
-5.38437
-3.25307
-1.06042
1.36422
3.9821
5.64931
5.84423
5.49283
5.1266
4.53037
3.97408
3.66747
3.57615
3.49075
3.1501
2.77103
2.47076
2.12572
1.81997
1.62656
1.52999
1.46323
1.35393
1.26952
1.18165
1.01584
0.844077
0.719321
0.636764
0.567746
0.480479
0.400292
0.321011
0.219939
0.114077
0.0143302
-0.0843174
-0.179475
-0.265444
-0.354654
-0.44883
-0.530606
-0.625309
-0.757486
-0.937369
-1.13883
-1.33196
-1.56978
-1.79785
-1.91952
-2.06005
-2.32474
-2.74088
-3.22165
-3.66658
-4.23349
-4.76178
-4.96022
-5.18441
-5.71614
-6.58796
-7.40614
-7.61205
-7.40661
-6.04305
-3.53755
-1.12652
1.53215
4.59327
6.50275
6.44646
5.86834
5.45872
4.71692
4.04409
3.7202
3.68868
3.67226
3.26456
2.83084
2.5371
2.15132
1.80965
1.61414
1.53953
1.49679
1.37538
1.30037
1.22982
1.03938
0.844468
0.715892
0.641236
0.581717
0.489099
0.410362
0.335959
0.228591
0.11679
0.0154637
-0.0858101
-0.183474
-0.266777
-0.355648
-0.45303
-0.52628
-0.612704
-0.744076
-0.936353
-1.1519
-1.34057
-1.60113
-1.85582
-1.93976
-2.04461
-2.30731
-2.76612
-3.29756
-3.73705
-4.38177
-5.00536
-5.11766
-5.27361
-5.85178
-6.93202
-8.00506
-8.26112
-8.25728
-6.79368
-3.79964
-1.17302
1.69299
5.28911
7.50897
7.07284
6.21121
5.80845
4.88869
4.07734
3.74239
3.79487
3.88371
3.37656
2.87454
2.60947
2.17156
1.78569
1.59059
1.5456
1.53652
1.39144
1.32948
1.2875
1.06235
0.838448
0.707418
0.644067
0.598294
0.496014
0.419587
0.353452
0.237304
0.118378
0.0165473
-0.0875832
-0.188685
-0.267514
-0.355778
-0.459384
-0.520876
-0.596313
-0.725374
-0.933146
-1.16701
-1.34187
-1.63169
-1.92779
-1.95712
-2.0146
-2.27171
-2.78327
-3.37908
-3.78463
-4.52565
-5.28776
-5.26405
-5.31814
-5.93299
-7.26179
-8.65683
-8.90699
-9.21193
-7.6595
-4.01478
-1.19037
1.82818
6.07623
8.70607
7.70949
6.49857
6.18863
5.04341
4.06705
3.72939
3.89325
4.13865
3.48325
2.89542
2.69399
2.18635
1.74593
1.55482
1.54825
1.58656
1.39947
1.35557
1.35887
1.08423
0.8245
0.693348
0.645237
0.619159
0.500356
0.427511
0.374615
0.245891
0.118392
0.0177911
-0.0895434
-0.195635
-0.267387
-0.354549
-0.469189
-0.51448
-0.575905
-0.700539
-0.927784
-1.18669
-1.33297
-1.66039
-2.02022
-1.97126
-1.96829
-2.2152
-2.79224
-3.47389
-3.80051
-4.66141
-5.62733
-5.39721
-5.31118
-5.94758
-7.57133
-9.38137
-9.51983
-10.2891
-8.67246
-4.14802
-1.16775
1.9096
6.9598
10.1441
8.33566
6.70057
6.61975
5.17774
4.0056
3.67645
3.98076
4.45531
3.57985
2.88417
2.7996
2.19509
1.68779
1.50572
1.54719
1.65266
1.3956
1.37673
1.44963
1.10396
0.800784
0.673193
0.64459
0.646623
0.500804
0.433489
0.400994
0.254012
0.116237
0.0195287
-0.0915155
-0.205057
-0.26602
-0.351154
-0.484176
-0.507065
-0.551285
-0.668504
-0.920108
-1.21463
-1.30983
-1.68523
-2.14168
-1.98109
-1.90381
-2.13449
-2.7924
-3.59329
-3.77254
-4.78278
-6.0488
-5.51293
-5.24615
-5.88174
-7.85232
-10.2094
-10.0549
-11.5121
-9.87626
-4.15064
-1.094
1.89644
7.94269
11.8883
8.92167
6.77888
7.13268
5.28628
3.88455
3.57902
4.0519
4.85797
3.65897
2.82826
2.93906
2.19628
1.60815
1.44226
1.54146
1.7427
1.37431
1.3902
1.56738
1.11971
0.765136
0.646614
0.64172
0.683831
0.495442
0.43664
0.434696
0.261107
0.111144
0.0222533
-0.0932142
-0.217953
-0.262926
-0.34437
-0.506654
-0.498403
-0.522351
-0.627941
-0.909606
-1.25609
-1.26699
-1.703
-2.30348
-1.98435
-1.81941
-2.02574
-2.782
-3.75346
-3.68438
-4.87997
-6.5851
-5.60373
-5.11729
-5.72012
-8.0925
-11.187
-10.4475
-12.9103
-11.3298
-3.95585
-0.959262
1.73152
9.02465
14.0236
9.4264
6.68502
7.77195
5.36005
3.6947
3.43324
4.09743
5.37861
3.70977
2.71116
3.13015
2.18699
1.50347
1.36367
1.5291
1.86733
1.32799
1.3922
1.72225
1.1285
0.7151
0.613526
0.63581
0.735008
0.481564
0.43582
0.478537
0.266302
0.102149
0.0266582
-0.0942096
-0.235677
-0.257502
-0.332419
-0.539682
-0.487946
-0.489167
-0.577255
-0.895189
-1.31845
-1.19731
-1.7089
-2.52039
-1.97706
-1.71361
-1.88459
-2.75754
-3.97701
-3.51461
-4.9385
-7.27962
-5.65714
-4.92046
-5.44597
-8.2734
-12.381
-10.6065
-14.5208
-13.1115
-3.47366
-0.757535
1.33706
10.2012
16.6588
9.79436
6.35861
8.59961
5.38447
3.42638
3.23664
4.10285
6.0589
3.71694
2.51157
3.39713
2.16208
1.36977
1.26966
1.50662
2.04079
1.24641
1.37769
1.92748
1.12578
0.647985
0.574237
0.625414
0.805761
0.455462
0.429575
0.536234
0.268305
0.08807
0.0336782
-0.0938861
-0.260022
-0.249033
-0.312811
-0.587282
-0.474678
-0.452067
-0.514582
-0.8749
-1.41174
-1.09157
-1.69601
-2.81159
-1.9528
-1.58559
-1.70623
-2.71274
-4.29477
-3.23568
-4.93779
-8.18884
-5.65349
-4.65422
-5.04152
-8.36728
-13.8866
-10.4069
-16.3901
-15.324
-2.58465
-0.490376
0.609968
11.4624
19.932
9.95243
5.7256
9.69956
5.33679
3.06985
2.98896
4.04646
6.95246
3.65957
2.20253
3.77234
2.11326
1.2028
1.16073
1.46833
2.28179
1.11608
1.34017
2.20016
1.10488
0.560974
0.529614
0.608183
0.903434
0.412174
0.416121
0.612597
0.265272
0.0674965
0.0445305
-0.091394
-0.293313
-0.236708
-0.282152
-0.654686
-0.456906
-0.411782
-0.437819
-0.845527
-1.54942
-0.938195
-1.65481
-3.2017
-1.90184
-1.4356
-1.48561
-2.63738
-4.74799
-2.81287
-4.84957
-9.38547
-5.5632
-4.32126
-4.48867
-8.33308
-15.835
-9.68111
-18.5761
-18.0998
-1.13272
-0.17195
)
;

boundaryField
{
    left
    {
        type            calculated;
        value           uniform 0;
    }
    right
    {
        type            calculated;
        value           uniform 0;
    }
    interface
    {
        type            calculated;
        value           nonuniform List<scalar> 
64
(
0.609968
11.4624
19.932
9.95243
5.7256
9.69956
5.33679
3.06985
2.98896
4.04646
6.95246
3.65957
2.20253
3.77234
2.11326
1.2028
1.16073
1.46833
2.28179
1.11608
1.34017
2.20016
1.10488
0.560974
0.529614
0.608183
0.903434
0.412174
0.416121
0.612597
0.265272
0.0674965
0.0445305
-0.091394
-0.293313
-0.236708
-0.282152
-0.654686
-0.456906
-0.411782
-0.437819
-0.845527
-1.54942
-0.938195
-1.65481
-3.2017
-1.90184
-1.4356
-1.48561
-2.63738
-4.74799
-2.81287
-4.84957
-9.38547
-5.5632
-4.32126
-4.48867
-8.33308
-15.835
-9.68111
-18.5761
-18.0998
-1.13272
-0.17195
)
;
    }
    bottom
    {
        type            calculated;
        value           nonuniform List<scalar> 
64
(
0.0074988
0.0221943
0.0359963
0.048408
0.0590716
0.0677612
0.0743991
0.0790334
0.0818034
0.0829091
0.0825832
0.0810692
0.078605
0.0754116
0.0716861
0.0675977
0.0632857
0.0588594
0.0544005
0.0499664
0.0455944
0.0413067
0.0371134
0.0330168
0.0290126
0.0250919
0.0212416
0.0174456
0.013685
0.00993887
0.00618448
0.00239788
-0.00144614
-0.00537399
-0.00941315
-0.0135919
-0.0179388
-0.0224813
-0.027245
-0.0322513
-0.0375157
-0.0430461
-0.0488401
-0.0548835
-0.0611467
-0.0675819
-0.074118
-0.0806562
-0.0870642
-0.0931721
-0.0987697
-0.103607
-0.107396
-0.109821
-0.110548
-0.109246
-0.10561
-0.0993918
-0.0904415
-0.0787398
-0.064431
-0.0478391
-0.0294633
-0.00995117
)
;
    }
    defaultFaces
    {
        type            empty;
    }
}


// ************************************************************************* //
