/*--------------------------------*- C++ -*----------------------------------*\
| =========                 |                                                 |
| \\      /  F ield         | OpenFOAM: The Open Source CFD Toolbox           |
|  \\    /   O peration     | Version:  5.x                                   |
|   \\  /    A nd           | Web:      www.OpenFOAM.org                      |
|    \\/     M anipulation  |                                                 |
\*---------------------------------------------------------------------------*/
FoamFile
{
    version     2.0;
    format      ascii;
    class       volScalarField;
    location    "0.9";
    object      T;
}
// * * * * * * * * * * * * * * * * * * * * * * * * * * * * * * * * * * * * * //

dimensions      [0 0 0 1 0 0 0];

internalField   nonuniform List<scalar> 
2048
(
9.82387
9.82411
9.82457
9.82523
9.82608
9.82708
9.8282
9.8294
9.83067
9.83196
9.83326
9.83454
9.83579
9.837
9.83815
9.83924
9.84026
9.84122
9.8421
9.84292
9.84366
9.84434
9.84495
9.8455
9.84598
9.84641
9.84677
9.84707
9.84731
9.8475
9.84762
9.84769
9.8477
9.84765
9.84753
9.84735
9.84711
9.84679
9.8464
9.84594
9.8454
9.84477
9.84405
9.84324
9.84234
9.84133
9.84022
9.83901
9.8377
9.83629
9.83479
9.83321
9.83155
9.82985
9.82812
9.8264
9.82471
9.8231
9.8216
9.82027
9.81914
9.81826
9.81765
9.81734
9.47914
9.47984
9.48121
9.4832
9.48573
9.48871
9.49204
9.49563
9.49939
9.50323
9.50709
9.51089
9.5146
9.51817
9.52158
9.52481
9.52783
9.53066
9.53327
9.53568
9.53789
9.53989
9.5417
9.54332
9.54475
9.546
9.54706
9.54796
9.54868
9.54922
9.54959
9.54979
9.54982
9.54966
9.54932
9.5488
9.54807
9.54714
9.546
9.54463
9.54303
9.54117
9.53906
9.53667
9.53399
9.53102
9.52775
9.52418
9.5203
9.51612
9.51168
9.50698
9.50208
9.49702
9.49189
9.48676
9.48173
9.47693
9.47248
9.46851
9.46514
9.4625
9.46067
9.45974
9.14896
9.15013
9.15242
9.15573
9.15993
9.16488
9.1704
9.17635
9.18255
9.18889
9.19523
9.20149
9.20758
9.21343
9.21902
9.22429
9.22924
9.23385
9.23812
9.24206
9.24565
9.24892
9.25187
9.25451
9.25684
9.25888
9.26062
9.26208
9.26325
9.26414
9.26475
9.26508
9.26512
9.26487
9.26432
9.26347
9.26229
9.26078
9.25893
9.2567
9.25409
9.25107
9.24763
9.24374
9.23938
9.23453
9.2292
9.22335
9.21701
9.21018
9.2029
9.19519
9.18714
9.17883
9.17037
9.16191
9.15361
9.14566
9.13828
9.13168
9.12609
9.12169
9.11865
9.1171
8.83243
8.83408
8.83731
8.84198
8.84789
8.85483
8.86256
8.87086
8.8795
8.8883
8.8971
8.90575
8.91416
8.92224
8.92992
8.93717
8.94396
8.95029
8.95614
8.96153
8.96646
8.97093
8.97497
8.97857
8.98177
8.98455
8.98693
8.98892
8.99053
8.99175
8.99259
8.99304
8.9931
8.99277
8.99203
8.99086
8.98927
8.98722
8.98469
8.98166
8.9781
8.97399
8.96929
8.96397
8.95801
8.95138
8.94407
8.93606
8.92736
8.91797
8.90793
8.89731
8.88618
8.87468
8.86294
8.85117
8.83961
8.82851
8.81818
8.80892
8.80105
8.79486
8.79058
8.7884
8.52873
8.53089
8.5351
8.54119
8.54888
8.55787
8.56786
8.57854
8.58963
8.6009
8.61212
8.62314
8.63382
8.64405
8.65377
8.66293
8.67149
8.67946
8.68683
8.6936
8.69979
8.70541
8.71048
8.71501
8.71901
8.72251
8.7255
8.728
8.73002
8.73155
8.73261
8.73318
8.73327
8.73286
8.73194
8.7305
8.72851
8.72596
8.7228
8.71902
8.71458
8.70943
8.70354
8.69688
8.68941
8.68108
8.67189
8.66181
8.65083
8.63898
8.62628
8.6128
8.59866
8.584
8.56901
8.55393
8.53907
8.52477
8.51142
8.49943
8.4892
8.48114
8.47556
8.47271
8.23708
8.23979
8.24506
8.25265
8.26221
8.27335
8.28567
8.2988
8.31238
8.32612
8.33976
8.35312
8.36602
8.37837
8.39006
8.40106
8.41133
8.42086
8.42967
8.43776
8.44515
8.45186
8.45791
8.46331
8.46809
8.47225
8.47582
8.47881
8.48122
8.48306
8.48433
8.48502
8.48514
8.48466
8.48358
8.48188
8.47953
8.47651
8.47278
8.4683
8.46302
8.45691
8.44992
8.44199
8.43308
8.42315
8.41217
8.40011
8.38695
8.37271
8.35742
8.34117
8.32405
8.30626
8.28801
8.2696
8.25139
8.23381
8.21733
8.20247
8.18977
8.17973
8.17277
8.16921
7.95679
7.96009
7.96651
7.97572
7.98727
8.00068
8.01544
8.03108
8.0472
8.06343
8.0795
8.09518
8.11028
8.12468
8.13829
8.15106
8.16296
8.174
8.18418
8.19352
8.20205
8.20979
8.21677
8.223
8.22851
8.23331
8.23743
8.24087
8.24365
8.24578
8.24725
8.24806
8.24821
8.24768
8.24646
8.24453
8.24185
8.2384
8.23413
8.229
8.22296
8.21595
8.20792
8.1988
8.18855
8.17711
8.16443
8.15047
8.13523
8.11869
8.10089
8.0819
8.06186
8.04094
8.01943
7.99764
7.976
7.95502
7.93527
7.9174
7.90207
7.88991
7.88146
7.87713
7.68719
7.69115
7.69883
7.7098
7.7235
7.73931
7.75663
7.77488
7.79359
7.81236
7.83086
7.84883
7.8661
7.88251
7.89798
7.91246
7.92593
7.93839
7.94988
7.96041
7.97002
7.97873
7.98658
7.99359
7.99979
8.0052
8.00983
8.01371
8.01685
8.01925
8.02091
8.02184
8.02203
8.02146
8.02011
8.01797
8.01499
8.01115
8.00639
8.00067
7.99392
7.98608
7.97708
7.96686
7.95534
7.94247
7.92818
7.91243
7.89518
7.87643
7.85618
7.83453
7.81159
7.78757
7.76276
7.73753
7.71237
7.68786
7.66468
7.6436
7.62545
7.611
7.60093
7.59577
7.42767
7.43235
7.44143
7.45434
7.47036
7.48875
7.50875
7.52972
7.55109
7.57242
7.59335
7.61362
7.63302
7.65139
7.66866
7.68478
7.69974
7.71357
7.72629
7.73794
7.74857
7.75821
7.76688
7.77463
7.78148
7.78745
7.79257
7.79686
7.80034
7.803
7.80486
7.8059
7.80613
7.80552
7.80407
7.80173
7.79849
7.79429
7.78909
7.78282
7.77543
7.76682
7.75693
7.74567
7.73298
7.71876
7.70296
7.68551
7.66635
7.64547
7.62286
7.59858
7.57278
7.54567
7.51754
7.48882
7.46003
7.43183
7.40503
7.38053
7.35932
7.34238
7.33054
7.32446
7.17763
7.18314
7.19377
7.20882
7.22738
7.24852
7.27137
7.29515
7.31924
7.34317
7.36655
7.38909
7.41058
7.43087
7.44988
7.46758
7.48396
7.49907
7.51295
7.52567
7.53726
7.54776
7.55722
7.56566
7.57312
7.57963
7.58521
7.58988
7.59368
7.59659
7.59863
7.59979
7.60006
7.59943
7.59788
7.59538
7.59189
7.58738
7.58178
7.57502
7.56703
7.55773
7.54701
7.5348
7.521
7.50554
7.48831
7.46925
7.44828
7.42535
7.40045
7.37363
7.345
7.3148
7.28333
7.25105
7.21852
7.18648
7.15583
7.12767
7.10315
7.08348
7.06969
7.06259
6.93652
6.94296
6.95534
6.97276
6.9941
7.01821
7.04405
7.07076
7.09764
7.12419
7.15001
7.1748
7.19836
7.22052
7.2412
7.2604
7.27813
7.29445
7.30943
7.32314
7.33564
7.34696
7.35715
7.36625
7.37428
7.38129
7.3873
7.39234
7.39643
7.39958
7.4018
7.40307
7.40339
7.40275
7.40111
7.39847
7.39477
7.38997
7.38401
7.37681
7.36829
7.35835
7.34688
7.33379
7.31897
7.30234
7.28378
7.26321
7.24052
7.21564
7.18853
7.15922
7.12781
7.09453
7.05971
7.02381
6.98743
6.95137
6.91667
6.88455
6.85643
6.83376
6.81781
6.80958
6.7038
6.71131
6.72568
6.74574
6.77012
6.79742
6.82643
6.85616
6.88588
6.91507
6.94333
6.97035
6.99593
7.0199
7.0422
7.06282
7.08182
7.09928
7.11529
7.12993
7.14328
7.15537
7.16626
7.17596
7.18453
7.19201
7.19842
7.20381
7.20818
7.21156
7.21395
7.21533
7.21571
7.21505
7.21335
7.21058
7.20669
7.20165
7.19537
7.18778
7.17878
7.16826
7.15611
7.1422
7.12645
7.10872
7.08893
7.06694
7.04263
7.0159
6.98667
6.95494
6.9208
6.88447
6.84628
6.80671
6.76638
6.72614
6.68712
6.65075
6.6187
6.59271
6.57438
6.56489
6.47898
6.4877
6.50432
6.52735
6.55507
6.5858
6.61813
6.65098
6.68359
6.71542
6.7461
6.77533
6.80289
6.82861
6.85246
6.87443
6.89462
6.91314
6.93011
6.94562
6.95977
6.97259
6.98412
6.9944
7.00348
7.01138
7.01817
7.02388
7.02853
7.03213
7.03468
7.03617
7.0366
7.03594
7.03419
7.0313
7.02725
7.02199
7.01544
7.0075
6.99808
6.98704
6.97427
6.95962
6.943
6.92427
6.90332
6.88002
6.8542
6.82572
6.79446
6.76038
6.72356
6.68421
6.64266
6.59938
6.55501
6.51041
6.46682
6.42587
6.38953
6.35988
6.33888
6.328
6.26155
6.27168
6.29086
6.31722
6.3486
6.38301
6.41883
6.45488
6.49039
6.52487
6.55795
6.58936
6.61884
6.64627
6.67158
6.69483
6.71612
6.73562
6.75348
6.76981
6.7847
6.7982
6.81035
6.82117
6.83071
6.83903
6.84617
6.85218
6.85708
6.86089
6.8636
6.8652
6.86568
6.86503
6.86323
6.86025
6.85606
6.85061
6.84381
6.83558
6.82579
6.8143
6.80096
6.78564
6.76821
6.74856
6.72655
6.70203
6.67481
6.64469
6.61149
6.57515
6.53571
6.49337
6.44847
6.40147
6.35298
6.30388
6.25546
6.20957
6.16851
6.13482
6.11086
6.09842
6.05103
6.06279
6.08491
6.11501
6.15041
6.18875
6.22821
6.26753
6.30595
6.34304
6.3785
6.41205
6.44342
6.47248
6.4992
6.52363
6.54594
6.56634
6.58501
6.6021
6.6177
6.63185
6.64457
6.6559
6.66587
6.67456
6.68203
6.68832
6.69346
6.69747
6.70034
6.70205
6.70259
6.70194
6.7001
6.69704
6.69273
6.68712
6.68012
6.67163
6.66152
6.64963
6.63579
6.61986
6.6017
6.58118
6.5582
6.53257
6.50406
6.47241
6.43738
6.39886
6.35687
6.31158
6.26335
6.21264
6.15999
6.10623
6.05271
6.0015
5.95529
5.91712
5.88987
5.8757
5.84697
5.86061
5.8861
5.92041
5.96022
6.00276
6.046
6.08862
6.12992
6.16959
6.20739
6.24304
6.27626
6.30689
6.33493
6.36045
6.38369
6.4049
6.42433
6.44212
6.45838
6.47314
6.48642
6.49822
6.50859
6.51762
6.52539
6.53194
6.53732
6.54152
6.54454
6.54635
6.54695
6.54632
6.54445
6.54132
6.5369
6.53115
6.52398
6.51529
6.50491
6.49267
6.47839
6.4619
6.44307
6.42176
6.39788
6.37124
6.34156
6.3085
6.27175
6.23114
6.18666
6.13847
6.08695
6.03256
5.97574
5.91721
5.85832
5.80138
5.74953
5.70638
5.67548
5.6594
5.64892
5.66473
5.69412
5.73317
5.77778
5.82478
5.87192
5.91784
5.96197
6.00416
6.04426
6.08199
6.11699
6.14914
6.17842
6.20495
6.22901
6.25095
6.27106
6.28951
6.30639
6.32175
6.33555
6.34779
6.35852
6.36786
6.3759
6.38271
6.3883
6.39269
6.39586
6.39778
6.39843
6.39781
6.39592
6.39273
6.38823
6.38236
6.37505
6.36619
6.35559
6.34306
6.32839
6.3114
6.29195
6.26992
6.24521
6.21767
6.18695
6.15261
6.11425
6.07164
6.02474
5.97369
5.91893
5.86091
5.79994
5.73656
5.67204
5.60895
5.55092
5.50223
5.46728
5.44911
5.45642
5.47476
5.50864
5.55304
5.60288
5.65458
5.70572
5.75492
5.80179
5.8464
5.88877
5.92854
5.9653
5.99889
6.02933
6.05677
6.08156
6.10414
6.12487
6.14393
6.1614
6.17732
6.19162
6.20427
6.21533
6.22495
6.23324
6.24028
6.24608
6.25066
6.25397
6.25599
6.2567
6.2561
6.25418
6.25094
6.24636
6.2404
6.23298
6.22399
6.21323
6.20047
6.18545
6.16801
6.148
6.12528
6.09982
6.07148
6.03985
6.00436
5.9645
5.92
5.87075
5.81689
5.75893
5.69738
5.63235
5.56406
5.49366
5.42396
5.35917
5.30433
5.2649
5.24445
5.26905
5.29031
5.32939
5.37983
5.43532
5.49195
5.54717
5.59957
5.64905
5.69597
5.74058
5.78239
5.82084
5.85581
5.88734
5.91558
5.94098
5.96411
5.9854
6.00503
6.02306
6.03953
6.05433
6.06736
6.07871
6.08856
6.09709
6.10434
6.11034
6.1151
6.11856
6.12069
6.12145
6.12086
6.11892
6.11564
6.111
6.10496
6.09746
6.08838
6.0775
6.06455
6.04924
6.0314
6.01086
5.9875
5.96135
5.93233
5.89992
5.86343
5.82218
5.77588
5.72437
5.66771
5.6066
5.54167
5.4727
5.39952
5.32297
5.2462
5.17403
5.11232
5.06796
5.04507
5.08638
5.111
5.15613
5.21338
5.27492
5.33669
5.39604
5.45152
5.50344
5.55254
5.59935
5.64321
5.6833
5.7196
5.75214
5.78106
5.80697
5.83054
5.85234
5.87251
5.89106
5.90809
5.92337
5.93674
5.94834
5.9584
5.96714
5.9746
5.98079
5.98572
5.98934
5.99156
5.99238
5.9918
5.98984
5.98651
5.98182
5.97572
5.96815
5.95903
5.94809
5.93501
5.91945
5.90125
5.88023
5.85625
5.82945
5.79985
5.76681
5.72948
5.68696
5.63895
5.58528
5.52583
5.4616
5.39347
5.32076
5.24276
5.15982
5.07548
4.99529
4.92586
4.87611
4.85065
4.90799
4.93644
4.98864
5.05358
5.12152
5.1886
5.25214
5.31051
5.36464
5.41575
5.46478
5.51072
5.55237
5.58993
5.62343
5.65291
5.6792
5.70312
5.72539
5.74605
5.7651
5.78268
5.79846
5.81214
5.82394
5.83416
5.8431
5.85076
5.85712
5.86224
5.86601
5.86833
5.8692
5.86864
5.86665
5.86328
5.85855
5.85239
5.84478
5.83565
5.8247
5.81154
5.79577
5.77724
5.7558
5.73119
5.70377
5.67371
5.64022
5.6022
5.55851
5.5089
5.45317
5.3909
5.32357
5.25246
5.17628
5.09363
5.00403
4.91162
4.82276
4.7446
4.689
4.6609
4.7335
4.76626
4.82673
4.90038
4.97496
5.0475
5.11526
5.17627
5.23236
5.28525
5.33655
5.38464
5.42776
5.46653
5.50093
5.53084
5.55737
5.58152
5.60423
5.62539
5.64489
5.66305
5.67934
5.69328
5.70523
5.71557
5.72469
5.73254
5.73907
5.74438
5.74831
5.75073
5.75164
5.75108
5.74907
5.74566
5.7409
5.73469
5.72704
5.71796
5.70704
5.69387
5.67791
5.6591
5.63728
5.61203
5.58398
5.5536
5.51981
5.4813
5.43652
5.38542
5.32777
5.2626
5.19211
5.11835
5.03905
4.95201
4.85547
4.75446
4.65632
4.56818
4.50629
4.47558
4.56251
4.60003
4.67026
4.75377
4.8351
4.9132
4.98525
5.04854
5.10629
5.16069
5.21435
5.26473
5.30918
5.34909
5.38438
5.41455
5.4412
5.46545
5.4886
5.51023
5.53013
5.54891
5.56575
5.57991
5.59195
5.60235
5.61166
5.6197
5.62637
5.63188
5.63599
5.63849
5.63944
5.63889
5.63685
5.63338
5.6286
5.62235
5.61467
5.60567
5.59485
5.58173
5.5656
5.54654
5.52441
5.49847
5.46975
5.43921
5.4053
5.36652
5.32069
5.26819
5.20884
5.14061
5.06685
4.99083
4.90881
4.81781
4.71399
4.60382
4.4959
4.39616
4.32764
4.2945
4.39467
4.4373
4.51911
4.61384
4.70174
4.7855
4.86195
4.92707
4.98614
5.04168
5.0979
5.15076
5.19634
5.23736
5.27355
5.30379
5.33042
5.35462
5.37823
5.40034
5.42054
5.44002
5.45747
5.47176
5.48385
5.49424
5.50375
5.51198
5.51876
5.52449
5.52879
5.53136
5.53236
5.53181
5.52972
5.5262
5.52143
5.51512
5.5074
5.49854
5.48786
5.47487
5.45857
5.43928
5.41694
5.39022
5.36076
5.33024
5.29638
5.25759
5.21073
5.15691
5.09615
5.02462
4.94735
4.86961
4.78533
4.69098
4.57946
4.45954
4.34158
4.22808
4.15274
4.11753
4.22969
4.27756
4.37323
4.48078
4.57468
4.66416
4.74526
4.81157
4.87164
4.92782
4.98691
5.04258
5.08893
5.13104
5.16821
5.19827
5.22476
5.24871
5.27287
5.29549
5.31586
5.33613
5.35429
5.36861
5.38068
5.39098
5.40072
5.40916
5.416
5.42198
5.4265
5.42912
5.43015
5.42961
5.42747
5.42387
5.41913
5.41276
5.40497
5.39631
5.38583
5.37306
5.35656
5.33706
5.31467
5.28703
5.25668
5.22641
5.19278
5.15431
5.10634
5.05126
4.98956
4.91433
4.83314
4.7544
4.66834
4.57153
4.45172
4.32138
4.19356
4.06334
3.98125
3.9446
4.0673
4.12021
4.23258
4.35486
4.45361
4.54896
4.63513
4.70173
4.76254
4.81868
4.88113
4.94005
4.98665
5.02988
5.0682
5.09774
5.124
5.14745
5.1723
5.19546
5.21578
5.23701
5.25601
5.27021
5.28222
5.29231
5.30234
5.31101
5.31784
5.32412
5.32889
5.33154
5.33259
5.33205
5.32985
5.32616
5.32149
5.31504
5.30714
5.29876
5.2885
5.27609
5.25934
5.23963
5.21741
5.18864
5.15716
5.12748
5.09421
5.05648
5.00723
4.95089
4.88896
4.80946
4.72372
4.64496
4.55753
4.45955
4.3306
4.18903
4.05225
3.90116
3.81289
3.77569
3.90735
3.96448
4.09723
4.23655
4.33816
4.43963
4.53155
4.59723
4.65865
4.71378
4.78031
4.84311
4.88916
4.93359
4.97335
5.00192
5.02791
5.0505
5.07629
5.10008
5.12003
5.14245
5.16249
5.17633
5.18826
5.19799
5.20842
5.21734
5.22406
5.2307
5.23576
5.23839
5.23946
5.23894
5.23666
5.23283
5.22831
5.22175
5.21365
5.20567
5.19565
5.18378
5.16666
5.1467
5.125
5.09481
5.06187
5.03321
5.00036
4.96398
4.9131
4.85542
4.79434
4.70975
4.61848
4.54109
4.45251
4.35523
4.2159
4.06206
3.91841
3.74053
3.64739
3.6109
3.74979
3.80947
3.96729
4.12647
4.22778
4.33586
4.43464
4.49767
4.55982
4.61255
4.68422
4.75178
4.79609
4.84191
4.88357
4.91051
4.93632
4.95756
4.98467
5.00921
5.02828
5.05223
5.07358
5.08673
5.0986
5.10777
5.11875
5.12798
5.1344
5.14152
5.14693
5.14946
5.15056
5.15007
5.1477
5.14366
5.13939
5.13269
5.12426
5.11684
5.10703
5.09595
5.07828
5.05799
5.03735
5.00533
4.97042
4.94342
4.91092
4.87672
4.82366
4.76443
4.70577
4.61497
4.51674
4.44269
4.3528
4.25888
4.10742
3.93984
3.7932
3.58009
3.48457
3.45038
3.59472
3.65399
3.84293
4.02549
4.12173
4.23733
4.34463
4.40253
4.46602
4.51438
4.59264
4.66619
4.70699
4.75457
4.79883
4.8232
4.84909
4.86827
4.89726
4.92273
4.9402
4.96618
4.98918
5.00117
5.0131
5.02138
5.03315
5.04274
5.04863
5.05639
5.06222
5.06455
5.06569
5.06524
5.06278
5.05843
5.05456
5.04767
5.03873
5.0321
5.0224
5.01247
4.99398
4.97322
4.95438
4.92
4.8824
4.85799
4.82554
4.79469
4.73861
4.67739
4.62347
4.52489
4.41769
4.34978
4.25777
4.17102
4.00488
3.82143
3.67839
3.41798
3.32434
3.29436
3.44244
3.49655
3.72446
3.93478
4.01903
4.14369
4.2619
4.31119
4.37736
4.41848
4.50541
4.58656
4.62134
4.67129
4.71916
4.73963
4.76614
4.78224
4.81392
4.8406
4.85542
4.8841
4.90924
4.91937
4.93159
4.93854
4.95146
4.96151
4.96651
4.97513
4.98146
4.98345
4.98465
4.98429
4.98171
4.97692
4.97366
4.96653
4.9568
4.95128
4.94151
4.93325
4.91354
4.89204
4.87612
4.83864
4.79736
4.77686
4.74381
4.71796
4.65764
4.59368
4.5478
4.43935
4.32032
4.26257
4.16655
4.09238
3.90801
3.70548
3.57656
3.2517
3.16682
3.14315
3.29347
3.33526
3.61226
3.85584
3.91833
4.05455
4.18707
4.22281
4.29414
4.32396
4.42236
4.5133
4.53851
4.59179
4.64467
4.65935
4.68748
4.69903
4.73456
4.7628
4.77351
4.80586
4.83374
4.84104
4.85399
4.85898
4.87354
4.88416
4.88777
4.89759
4.90453
4.90597
4.90728
4.90702
4.90435
4.8989
4.89656
4.88912
4.87821
4.87429
4.86409
4.85821
4.83674
4.81409
4.80263
4.76109
4.71477
4.70007
4.66522
4.64675
4.58045
4.51253
4.47933
4.35823
4.22343
4.18156
4.07799
4.02401
3.81651
3.59005
3.49129
3.07786
3.01242
2.99709
3.14867
3.16773
3.50687
3.7906
3.81788
3.96953
4.12099
4.1363
4.21693
4.22971
4.34338
4.44697
4.45774
4.5158
4.57562
4.58184
4.61321
4.61811
4.6591
4.68942
4.69398
4.7313
4.76273
4.76583
4.78026
4.78238
4.79927
4.81061
4.81215
4.82362
4.83129
4.8319
4.8334
4.8333
4.83054
4.82413
4.82315
4.81531
4.80269
4.80103
4.78982
4.78735
4.7634
4.73893
4.73408
4.68722
4.63402
4.62779
4.58916
4.58136
4.50674
4.43299
4.41884
4.28144
4.12555
4.10759
3.99051
3.96732
3.7301
3.47247
3.42756
2.89197
2.86195
2.85657
)
;

boundaryField
{
    left
    {
        type            zeroGradient;
    }
    right
    {
        type            zeroGradient;
    }
    interface
    {
        type            fixedValue;
        value           nonuniform List<scalar> 
64
(
3.07739
3.07739
3.45682
3.7655
3.7655
3.92798
4.0923
4.0923
4.18098
4.18098
4.30504
4.41701
4.41701
4.47862
4.5433
4.5433
4.57762
4.57762
4.6225
4.65424
4.65424
4.69502
4.72877
4.72877
4.74455
4.74455
4.76312
4.77493
4.77493
4.78756
4.79568
4.79568
4.79734
4.79734
4.79457
4.78745
4.78745
4.77937
4.76549
4.76549
4.75329
4.75329
4.72756
4.70168
4.70168
4.65129
4.59332
4.59332
4.55118
4.55118
4.4707
4.39254
4.39254
4.2444
4.07406
4.07406
3.94527
3.94527
3.6884
3.40938
3.40938
2.78774
2.78774
2.78774
)
;
    }
    bottom
    {
        type            fixedValue;
        value           uniform 10;
    }
    defaultFaces
    {
        type            empty;
    }
}


// ************************************************************************* //
