/*--------------------------------*- C++ -*----------------------------------*\
| =========                 |                                                 |
| \\      /  F ield         | OpenFOAM: The Open Source CFD Toolbox           |
|  \\    /   O peration     | Version:  5.x                                   |
|   \\  /    A nd           | Web:      www.OpenFOAM.org                      |
|    \\/     M anipulation  |                                                 |
\*---------------------------------------------------------------------------*/
FoamFile
{
    version     2.0;
    format      ascii;
    class       volScalarField;
    location    "3.1";
    object      gradTy;
}
// * * * * * * * * * * * * * * * * * * * * * * * * * * * * * * * * * * * * * //

dimensions      [0 -1 0 1 0 0 0];

internalField   nonuniform List<scalar> 
6300
(
32276
32227.9
32179.9
32131.9
32084.1
32036.3
31988.7
31941.2
31893.9
31846.8
31800
31753.4
31707
31661
31615.2
-0.0178447
-0.0536078
-0.0895783
-0.125849
-0.162446
-0.199299
-0.236221
-0.272893
-0.308861
-0.343565
-0.376389
-0.406762
-0.434289
-0.458895
-0.48096
-0.0296591
-0.0891154
-0.148963
-0.209387
-0.270459
-0.332087
-0.393978
-0.455599
-0.516168
-0.574686
-0.630023
-0.681081
-0.727035
-0.76762
-0.803406
-0.0413351
-0.12423
-0.207767
-0.292271
-0.377905
-0.464603
-0.551994
-0.639342
-0.725509
-0.808969
-0.887913
-0.960479
-1.02512
-1.08112
-1.12906
-0.0527855
-0.158698
-0.265599
-0.374017
-0.48428
-0.596415
-0.710039
-0.824251
-0.937539
-1.04775
-1.15216
-1.24778
-1.33184
-1.40264
-1.46044
-0.0638924
-0.192174
-0.321905
-0.453906
-0.588768
-0.726718
-0.867474
-1.01006
-1.15262
-1.29229
-1.42517
-1.54658
-1.65177
-1.7371
-1.80173
-0.0745008
-0.224196
-0.375931
-0.530924
-0.690151
-0.854197
-1.02306
-1.19586
-1.37056
-1.54358
-1.7096
-1.86157
-1.99153
-2.09222
-2.16006
-0.0844135
-0.254172
-0.42669
-0.603693
-0.786694
-0.97684
-1.17467
-1.37974
-1.59014
-1.80185
-2.00801
-2.19855
-2.36049
-2.48014
-2.5478
-0.093393
-0.281379
-0.472953
-0.670447
-0.876071
-1.09178
-1.319
-1.55824
-1.80838
-2.06561
-2.32202
-2.56406
-2.77168
-2.92001
-2.98642
-0.101169
-0.304992
-0.51328
-0.729049
-0.955343
-1.19516
-1.45127
-1.72581
-2.01949
-2.33013
-2.65033
-2.96394
-3.24209
-3.44173
-3.51363
-0.107459
-0.32413
-0.54611
-0.777106
-1.02106
-1.28222
-1.56508
-1.8742
-2.21357
-2.58504
-2.98519
-3.39921
-3.79094
-4.09112
-4.19701
-0.111993
-0.337949
-0.569908
-0.812178
-1.06955
-1.34753
-1.65257
-1.99231
-2.37549
-2.81121
-3.30611
-3.8567
-4.43128
-4.9347
-5.16391
-0.114551
-0.345753
-0.583375
-0.832122
-1.0974
-1.38573
-1.70532
-2.06691
-2.48481
-2.97813
-3.57128
-4.29013
-5.14269
-6.05238
-6.67837
-0.115007
-0.347126
-0.585698
-0.835507
-1.10216
-1.39261
-1.71603
-2.08515
-2.51863
-3.04517
-3.71069
-4.58976
-5.79685
-7.45362
-9.34728
-0.113353
-0.342033
-0.576761
-0.822021
-1.08307
-1.36648
-1.68099
-2.03898
-2.45934
-2.97318
-3.63647
-4.56127
-6.00119
-8.61778
-14.4256
31573.6
31536
31498.6
31461.5
31424.6
31388
31351.6
31315.6
31279.8
31244.4
31209.3
31174.6
31140.2
31106.1
31072.5
31039.2
31006.4
30973.9
30941.8
30910.2
30878.9
30848
30817.5
30787.4
30757.6
30728.2
30699
30670.2
30641.7
30613.4
30585.4
30557.7
30530.1
30502.7
30475.5
30448.5
30421.6
30394.9
30368.2
30341.7
30315.3
30289
30262.7
30236.5
30210.4
30184.3
30158.3
30132.3
30106.4
30080.5
30054.6
30028.6
30002.7
29976.7
29950.7
29924.7
29898.6
29872.4
29846.1
29819.6
29793.1
29766.5
29739.6
29712.7
29685.6
29658.3
29630.8
29603.2
29575.4
29547.3
29519.1
29490.7
29462
29433.2
29404.1
29374.8
29345.3
29315.5
29285.5
29255.3
29224.8
29194.1
29163.2
29131.9
29100.5
29068.7
29036.8
29004.5
28972
28939.3
-0.499677
-0.51641
-0.533771
-0.552675
-0.573895
-0.597911
-0.624806
-0.65421
-0.685339
-0.717087
-0.748188
-0.777374
-0.803529
-0.825769
-0.843479
-0.85627
-0.86392
-0.866305
-0.863356
-0.855054
-0.841455
-0.822729
-0.799186
-0.771284
-0.739606
-0.704817
-0.667625
-0.628745
-0.588882
-0.548717
-0.508897
-0.470006
-0.432536
-0.396859
-0.363211
-0.331704
-0.302352
-0.275118
-0.249943
-0.226761
-0.205479
-0.185939
-0.167872
-0.150872
-0.134397
-0.117818
-0.100488
-0.0818321
-0.0614219
-0.0390275
-0.0146285
0.0116073
0.0393681
0.0682465
0.0977811
0.127486
0.156872
0.185474
0.212878
0.238764
0.262932
0.285315
0.305968
0.325024
0.342643
0.358968
0.374097
0.388092
0.401003
0.412906
0.423928
0.434242
0.444041
0.453498
0.462724
0.471754
0.480557
0.489071
0.497242
0.505048
0.512492
0.519562
0.526179
0.532141
0.537095
0.54055
0.54192
0.540603
0.536051
0.527841
-0.833237
-0.859681
-0.887164
-0.917451
-0.952058
-0.991963
-1.03738
-1.08764
-1.14128
-1.19622
-1.25008
-1.30051
-1.34552
-1.38358
-1.41373
-1.43542
-1.44838
-1.45248
-1.4476
-1.43368
-1.41075
-1.37905
-1.3391
-1.29168
-1.23783
-1.17873
-1.11561
-1.0497
-0.982182
-0.914225
-0.846938
-0.781346
-0.718316
-0.658489
-0.602244
-0.549718
-0.500872
-0.455588
-0.413752
-0.37528
-0.34008
-0.307959
-0.278512
-0.251054
-0.224613
-0.198023
-0.170069
-0.139668
-0.106031
-0.0687519
-0.0278324
0.0163794
0.0632862
0.112144
0.162136
0.212416
0.26213
0.31045
0.356632
0.400089
0.44047
0.47769
0.5119
0.543404
0.572543
0.599593
0.624711
0.647954
0.669351
0.688993
0.707092
0.72398
0.740046
0.755638
0.770967
0.786074
0.800852
0.815136
0.828802
0.841823
0.854263
0.866195
0.877568
0.88809
0.897157
0.903872
0.907143
0.905833
0.898926
0.885659
-1.16773
-1.2014
-1.23647
-1.27595
-1.32253
-1.37802
-1.4429
-1.51614
-1.59529
-1.67684
-1.75681
-1.83138
-1.89741
-1.95271
-1.99608
-2.02704
-2.04551
-2.05147
-2.04477
-2.02518
-1.99258
-1.94717
-1.88965
-1.82122
-1.7435
-1.65832
-1.56751
-1.47284
-1.376
-1.27864
-1.18241
-1.08887
-0.999355
-0.914829
-0.835791
-0.762301
-0.694128
-0.63096
-0.572582
-0.518953
-0.470115
-0.425995
-0.386158
-0.349638
-0.314914
-0.280063
-0.243043
-0.20204
-0.155758
-0.103596
-0.0456559
0.0173905
0.0845134
0.154523
0.22619
0.298272
0.369506
0.438617
0.504414
0.565947
0.622665
0.674501
0.721828
0.765286
0.805547
0.843093
0.878116
0.910563
0.940313
0.967386
0.992081
1.01498
1.03681
1.05823
1.0796
1.10094
1.12193
1.14216
1.16136
1.1795
1.19683
1.21369
1.23024
1.24619
1.26066
1.2722
1.27901
1.27918
1.27102
1.25329
-1.50431
-1.54111
-1.57939
-1.6242
-1.68016
-1.75052
-1.83635
-1.93611
-2.04582
-2.15971
-2.27131
-2.37456
-2.46476
-2.53904
-2.5963
-2.63666
-2.6607
-2.66873
-2.66054
-2.63547
-2.59291
-2.5328
-2.45597
-2.36422
-2.26003
-2.14611
-2.02508
-1.89923
-1.77069
-1.64158
-1.51417
-1.39076
-1.27338
-1.16345
-1.06155
-0.967435
-0.880398
-0.799664
-0.72482
-0.655981
-0.593624
-0.538145
-0.489322
-0.445942
-0.405716
-0.365553
-0.322095
-0.272365
-0.214315
-0.147134
-0.0712165
0.0121378
0.101181
0.194106
0.289227
0.384927
0.479506
0.571116
0.657895
0.738292
0.811439
0.877352
0.936869
0.991315
1.042
1.08977
1.13477
1.1766
1.21468
1.24875
1.27921
1.30707
1.33374
1.36045
1.38788
1.41588
1.44367
1.47028
1.49504
1.51795
1.5397
1.56127
1.58342
1.60608
1.62805
1.64705
1.66014
1.66424
1.65666
1.63548
-1.84529
-1.87862
-1.91286
-1.95632
-2.01697
-2.10069
-2.20968
-2.34169
-2.49024
-2.6458
-2.79775
-2.93645
-3.05495
-3.1498
-3.22077
-3.26972
-3.29884
-3.30927
-3.30052
-3.27086
-3.21844
-3.14241
-3.04371
-2.92507
-2.79047
-2.64408
-2.48949
-2.32942
-2.16612
-2.00201
-1.8401
-1.68389
-1.53662
-1.40046
-1.27601
-1.16233
-1.05754
-0.959836
-0.868363
-0.783631
-0.707194
-0.640676
-0.584622
-0.537682
-0.496411
-0.455776
-0.410173
-0.354666
-0.286025
-0.203258
-0.1075
-0.00132574
0.112233
0.230498
0.351397
0.473155
0.59374
0.710528
0.820513
0.921025
1.01057
1.08935
1.15915
1.22269
1.28259
1.34035
1.39592
1.44795
1.49472
1.53525
1.56998
1.60082
1.63051
1.66156
1.69523
1.73103
1.76705
1.80098
1.83129
1.85801
1.88274
1.90795
1.9358
1.96689
1.99964
2.03035
2.05414
2.06603
2.06184
2.03866
-2.19525
-2.21476
-2.233
-2.26364
-2.32053
-2.41441
-2.54979
-2.7234
-2.92449
-3.13704
-3.34321
-3.52736
-3.67913
-3.79485
-3.8769
-3.93125
-3.96381
-3.97737
-3.97053
-3.93896
-3.87788
-3.78459
-3.66005
-3.50882
-3.33778
-3.15378
-2.96171
-2.76418
-2.56262
-2.35915
-2.15774
-1.96405
-1.78374
-1.62051
-1.47488
-1.3443
-1.22437
-1.11093
-1.00209
-0.899228
-0.806369
-0.728029
-0.666694
-0.621152
-0.586086
-0.553049
-0.512405
-0.455774
-0.377968
-0.277983
-0.158676
-0.0253185
0.116611
0.263199
0.412427
0.563173
0.713538
0.859834
0.996872
1.11964
1.22531
1.31437
1.39053
1.45941
1.52634
1.59418
1.66227
1.72697
1.78385
1.83019
1.86644
1.8963
1.92541
1.959
1.99961
2.04595
2.09352
2.13697
2.17281
2.20101
2.22516
2.25091
2.28357
2.32541
2.37423
2.42369
2.46535
2.49105
2.4944
2.47127
-2.56312
-2.55269
-2.53523
-2.53311
-2.57079
-2.66834
-2.8348
-3.06549
-3.34219
-3.6374
-3.92028
-4.16483
-4.35514
-4.48829
-4.5728
-4.62402
-4.65605
-4.67468
-4.67604
-4.64939
-4.58352
-4.47163
-4.31463
-4.1209
-3.90356
-3.67487
-3.44156
-3.2045
-2.96164
-2.71306
-2.464
-2.22465
-2.00599
-1.81489
-1.65178
-1.5106
-1.38153
-1.25505
-1.12684
-1.00005
-0.884246
-0.790495
-0.725608
-0.689114
-0.67241
-0.660837
-0.637206
-0.586908
-0.501368
-0.380034
-0.229581
-0.0611404
0.114803
0.292623
0.471802
0.654274
0.839737
1.02302
1.19433
1.34345
1.46454
1.55851
1.63298
1.69951
1.76934
1.84824
1.93407
2.01781
2.08874
2.14024
2.17264
2.19346
2.2144
2.24686
2.29629
2.35964
2.42646
2.48445
2.52583
2.55037
2.56576
2.5844
2.61858
2.67431
2.74833
2.82869
2.89993
2.94863
2.96546
2.94511
-2.96603
-2.90068
-2.81531
-2.74522
-2.73477
-2.82299
-3.02728
-3.34125
-3.73319
-4.15543
-4.55248
-4.88028
-5.11334
-5.25164
-5.31646
-5.34425
-5.36736
-5.39666
-5.42162
-5.41606
-5.35514
-5.22333
-5.02179
-4.76665
-4.4853
-4.20221
-3.92638
-3.65275
-3.3684
-3.06719
-2.75577
-2.45489
-2.18798
-1.96836
-1.79649
-1.6588
-1.53429
-1.40094
-1.24883
-1.08426
-0.929569
-0.810555
-0.742767
-0.72768
-0.750426
-0.785043
-0.799438
-0.767787
-0.67528
-0.522952
-0.325292
-0.106642
0.111443
0.321258
0.527621
0.742266
0.970292
1.20466
1.42501
1.60886
1.74412
1.832
1.88817
1.93614
2.0006
2.0936
2.21018
2.32843
2.42291
2.47909
2.49681
2.49173
2.4881
2.51156
2.57416
2.66959
2.77332
2.85706
2.90427
2.91406
2.90282
2.89663
2.92364
2.99794
3.11432
3.24778
3.36787
3.45299
3.49086
3.47692
-3.43631
-3.27741
-3.07332
-2.87137
-2.75659
-2.81039
-3.06177
-3.50467
-4.08045
-4.70966
-5.28429
-5.73205
-6.00785
-6.12068
-6.11328
-6.07105
-6.06957
-6.12465
-6.21091
-6.26218
-6.22859
-6.07511
-5.80582
-5.44977
-5.06914
-4.71869
-4.40755
-4.11597
-3.79893
-3.4355
-3.0318
-2.63566
-2.30122
-2.05243
-1.89127
-1.78729
-1.69904
-1.57309
-1.38796
-1.1534
-0.922656
-0.755939
-0.683081
-0.710773
-0.810332
-0.937324
-1.02691
-1.03521
-0.934211
-0.72999
-0.450035
-0.150094
0.121259
0.35617
0.572844
0.812339
1.09308
1.40787
1.70963
1.94565
2.09338
2.15261
2.15662
2.15049
2.19222
2.30651
2.48538
2.67476
2.81374
2.87483
2.85531
2.78939
2.72428
2.7214
2.80623
2.96903
3.15042
3.28367
3.33799
3.30939
3.23393
3.1624
3.16189
3.26223
3.45692
3.68731
3.88728
4.02642
4.09186
4.09005
-4.03407
-3.71912
-3.3281
-2.87184
-2.53549
-2.51309
-2.82027
-3.47654
-4.35062
-5.34231
-6.19866
-6.83132
-7.13694
-7.16273
-6.96015
-6.73909
-6.69025
-6.80766
-7.0505
-7.23043
-7.27462
-7.09363
-6.71476
-6.16831
-5.60956
-5.17857
-4.8606
-4.61588
-4.29632
-3.86185
-3.29703
-2.72768
-2.29127
-2.01042
-1.90388
-1.89328
-1.91826
-1.83067
-1.59854
-1.21734
-0.823862
-0.566508
-0.478954
-0.590731
-0.831117
-1.14388
-1.3719
-1.4605
-1.34233
-1.04665
-0.604146
-0.152976
0.182938
0.41673
0.584589
0.822388
1.16617
1.62918
2.08823
2.40886
2.5694
2.55201
2.43896
2.2952
2.27863
2.42567
2.74472
3.09288
3.31599
3.38591
3.27988
3.08513
2.87011
2.80421
2.92531
3.24104
3.59617
3.8233
3.89045
3.77157
3.55878
3.32529
3.25435
3.39011
3.74761
4.17016
4.49377
4.70544
4.78918
4.8156
-4.87192
-4.27022
-3.67661
-2.69937
-1.86203
-1.74084
-2.07577
-3.13446
-4.45111
-6.1696
-7.43491
-8.40132
-8.66884
-8.53353
-7.83361
-7.15915
-7.0716
-7.3102
-7.98083
-8.3944
-8.64522
-8.39747
-7.86549
-6.9051
-5.96659
-5.4764
-5.20891
-5.22437
-4.96007
-4.47685
-3.56984
-2.62939
-2.05856
-1.71873
-1.77974
-1.94955
-2.30118
-2.29813
-2.02556
-1.30093
-0.531108
-0.134771
0.00989658
-0.287888
-0.75019
-1.47506
-1.92043
-2.18639
-2.00907
-1.57788
-0.773995
0.00675567
0.388214
0.568693
0.492023
0.67615
1.06386
1.85239
2.66227
3.09865
3.29761
3.08511
2.76145
2.25262
2.1253
2.29296
2.95791
3.68687
4.03458
4.14611
3.82799
3.40587
2.79703
2.6136
2.76
3.45224
4.22226
4.58937
4.70696
4.36517
3.90973
3.25049
3.0456
3.19526
3.9413
4.79226
5.25835
5.56571
5.56611
5.69933
-6.19376
-4.80943
-4.57734
-2.32534
-0.157177
-0.311697
-0.288971
-2.42083
-3.97284
-7.6494
-9.10147
-10.9776
-10.7807
-10.7172
-8.67021
-6.73388
-6.9831
-7.19045
-9.28119
-9.79256
-10.7336
-10.1104
-9.63286
-7.61009
-5.6777
-5.4532
-5.14947
-6.23541
-5.93875
-5.70173
-3.8904
-1.99836
-1.49274
-0.849417
-1.49847
-1.74358
-3.19439
-3.15322
-3.10305
-1.44901
0.300104
0.660011
1.13647
0.252444
-0.290593
-2.20816
-2.72671
-3.54995
-3.04068
-2.64504
-0.909757
0.742282
0.883715
1.09173
0.024693
0.237556
0.385185
2.04573
3.77505
4.13123
4.61924
3.77918
3.3515
1.66155
1.54814
1.44508
3.07987
4.83078
5.09423
5.52597
4.52682
3.99646
2.11235
1.94902
1.80965
3.55239
5.42945
5.71564
6.18592
5.12339
4.55514
2.52238
2.32727
2.14249
3.98472
5.96934
6.25226
6.86881
6.15269
6.8616
-8.87438
-3.68926
-8.38657
-1.8304
4.89249
0.862353
4.60058
-2.54208
-0.435108
-12.3323
-10.1572
-16.5392
-12.7
-15.7572
-9.34721
-3.16124
-6.95471
-4.35837
-12.8557
-10.5718
-15.0742
-11.6132
-13.6252
-8.18464
-2.92914
-5.54378
-3.08855
-9.23709
-6.8312
-9.19327
-4.32675
0.629507
-1.12475
1.88141
-1.79846
0.199083
-6.23564
-4.02077
-6.48965
-1.73347
3.13233
1.28753
4.22279
0.302313
2.14893
-4.95529
-3.09362
-6.83177
-3.90801
-5.64063
-0.924934
3.65381
1.28408
3.45165
-2.28495
-0.106315
-2.47131
2.14084
6.86595
4.97485
7.85415
3.88026
5.76009
-1.19885
0.956925
-1.90441
3.0355
8.11753
5.91246
8.96718
4.55154
6.53736
-1.0493
1.25088
-1.84998
3.46001
8.92841
6.57773
9.87299
5.17079
7.31033
-0.850991
1.59493
-1.82823
3.82393
9.59772
6.76657
10.0917
4.6881
8.96268
-18.4025
11.6618
-28.4006
-1.57533
25.4268
-9.14977
25.1589
-15.9825
23.269
-37.2792
1.10951
-36.8189
-4.68841
-34.4299
-9.70142
14.782
-16.1275
14.4487
-31.955
-1.57871
-30.8822
-5.2347
-28.3493
-8.49275
11.1524
-12.9351
11.3618
-24.5573
-0.857879
-23.0942
-4.89255
12.9203
-7.61205
14.2399
-10.2743
14.2839
-21.7328
1.85584
-20.2809
-2.17634
15.6272
-4.96889
17.1808
-7.95319
17.477
-20.6142
4.60234
-19.7078
1.92885
-17.923
-0.744018
16.57
-4.85048
17.1924
-15.9938
6.09139
-15.3763
2.07193
19.4829
-1.05234
20.9562
-4.44947
20.8951
-17.186
7.58884
-16.4892
2.78492
21.8961
-0.84496
23.1641
-4.64344
22.8611
-18.4495
8.32867
-17.6227
3.13804
23.6853
-0.691754
25.0749
-4.63529
24.8973
-19.5
9.31274
-18.8685
3.48684
25.6161
-1.58525
25.8829
-10.7142
17.0379
28903
28863
28822.7
28782.1
28741.2
28700
28658.6
28616.9
28575
28533
28490.8
28448.6
28406.2
28363.7
28321.2
0.514514
0.494336
0.468862
0.438766
0.404937
0.368342
0.329909
0.29045
0.250613
0.21086
0.171482
0.132615
0.0942703
0.0563657
0.0187538
0.863577
0.829608
0.786434
0.735319
0.677886
0.615875
0.550928
0.484454
0.41755
0.350983
0.28521
0.220429
0.156624
0.0936225
0.0311462
1.2225
1.17407
1.11194
1.03817
0.955398
0.866327
0.773464
0.678883
0.584151
0.490313
0.397953
0.307271
0.218176
0.130356
0.0433574
1.59611
1.5321
1.44893
1.34992
1.23909
1.12047
0.997632
0.873401
0.74981
0.628132
0.508994
0.392517
0.278448
0.166268
0.0552858
1.99073
1.90923
1.80171
1.67342
1.53049
1.37876
1.22312
1.06722
0.913512
0.763374
0.617345
0.475336
0.33682
0.200976
0.0668032
2.4146
2.31241
2.17525
2.01155
1.83063
1.64087
1.44876
1.25878
1.07359
0.894466
0.721644
0.554638
0.392503
0.234007
0.0777508
2.87902
2.75075
2.57547
2.36701
2.13965
1.90526
1.67218
1.44543
1.22752
1.0192
0.820088
0.629043
0.44453
0.264787
0.0879398
3.40014
3.23657
3.00925
2.74169
2.45595
2.16847
1.88922
1.62312
1.37174
1.13467
0.910409
0.696879
0.491764
0.29266
0.0971549
4.00174
3.78673
3.4838
3.13506
2.77459
2.42385
2.09328
1.78608
1.50157
1.23725
0.989929
0.756254
0.532955
0.316916
0.105167
4.72161
4.42453
4.00395
3.54016
3.08393
2.65959
2.27427
1.92644
1.61118
1.32277
1.05574
0.805201
0.56685
0.336861
0.111753
5.6339
5.1841
4.56591
3.93625
3.36101
2.8565
2.41802
2.03437
1.69396
1.38686
1.105
0.841912
0.592349
0.351904
0.116727
6.92532
6.11267
5.13997
4.27685
3.56666
2.98728
2.50705
2.09911
1.74346
1.42569
1.13544
0.865057
0.608697
0.361665
0.119975
9.09977
7.20127
5.60598
4.46466
3.64127
3.01891
2.52385
2.11162
1.75505
1.43696
1.14596
0.874137
0.615688
0.366065
0.121477
13.3212
7.98548
5.61761
4.33427
3.51476
2.92337
2.45791
2.06849
1.72815
1.42107
1.13723
0.869798
0.613818
0.365412
0.121335
-0.110168
-0.332246
-0.559654
-0.796292
-1.04665
-1.31622
-1.61205
-1.94387
-2.32597
-2.78106
-3.34885
-4.1074
-5.23316
-7.19156
-11.4038
-0.105928
-0.319239
-0.536979
-0.762308
-0.998716
-1.25021
-1.52152
-1.81842
-2.1479
-2.51815
-2.9365
-3.39919
-3.84443
-3.93693
-2.04348
-0.100673
-0.303145
-0.509017
-0.720603
-0.94027
-1.17039
-1.41319
-1.67028
-1.94149
-2.2218
-2.49329
-2.70301
-2.70057
-2.0614
0.380974
-0.0946307
-0.28468
-0.477068
-0.67326
-0.874529
-1.08173
-1.2949
-1.51231
-1.72872
-1.93153
-2.09289
-2.15403
-1.99885
-1.43795
-0.38207
-0.0880384
-0.264579
-0.442457
-0.622364
-0.804628
-0.988897
-1.1736
-1.35499
-1.52536
-1.66999
-1.76202
-1.75514
-1.57889
-1.15812
-0.521918
-0.0811199
-0.243537
-0.406416
-0.569804
-0.733297
-0.895713
-1.05457
-1.20527
-1.33983
-1.44496
-1.49975
-1.47373
-1.32871
-1.02777
-0.52425
-0.0740738
-0.222163
-0.37
-0.51714
-0.662677
-0.804954
-0.941151
-1.06673
-1.17469
-1.25486
-1.29353
-1.27482
-1.18677
-1.03802
-0.904991
-0.0670641
-0.200952
-0.334047
-0.465559
-0.594283
-0.71837
-0.835057
-0.940358
-1.02882
-1.09356
-1.12709
-1.12397
-1.08691
-1.03723
-1.02092
-0.0602167
-0.180281
-0.299171
-0.415883
-0.529069
-0.63688
-0.736817
-0.825631
-0.899381
-0.953891
-0.986032
-0.996563
-0.995722
-1.01316
-1.1141
-0.0536216
-0.160411
-0.265786
-0.368626
-0.467548
-0.56081
-0.64625
-0.721312
-0.783254
-0.829716
-0.859927
-0.876953
-0.89175
-0.930994
-1.05891
-0.0473375
-0.141511
-0.234139
-0.32406
-0.409919
-0.490124
-0.562836
-0.62605
-0.677827
-0.71678
-0.742906
-0.75878
-0.770713
-0.787124
-0.797432
-0.0413974
-0.123671
-0.204351
-0.282281
-0.356175
-0.424593
-0.485966
-0.538677
-0.581255
-0.6127
-0.632928
-0.643225
-0.646491
-0.647358
-0.657681
-0.035815
-0.106924
-0.17645
-0.243274
-0.306192
-0.363907
-0.415058
-0.458287
-0.492366
-0.51636
-0.529764
-0.532423
-0.523868
-0.500891
-0.445568
-0.0305899
-0.0912632
-0.150404
-0.206948
-0.259779
-0.307728
-0.349596
-0.384199
-0.410433
-0.427325
-0.433981
-0.429273
-0.411198
-0.376759
-0.330085
-0.0257121
-0.0766532
-0.126137
-0.173166
-0.216713
-0.255722
-0.289125
-0.31587
-0.334941
-0.345353
-0.346012
-0.335277
-0.309831
-0.261002
-0.156849
-0.0211652
-0.0630417
-0.103552
-0.14177
-0.176755
-0.207557
-0.233222
-0.252813
-0.265415
-0.270112
-0.265881
-0.251368
-0.224645
-0.183554
-0.129073
-0.0169291
-0.0503654
-0.0825341
-0.112584
-0.13966
-0.162906
-0.181478
-0.194553
-0.201331
-0.201026
-0.192817
-0.17581
-0.149364
-0.11527
-0.087171
-0.0129813
-0.0385555
-0.0629641
-0.08543
-0.105179
-0.121449
-0.133495
-0.140607
-0.142113
-0.137382
-0.125793
-0.106673
-0.0792956
-0.042705
0.00873909
-0.00929863
-0.0275408
-0.0447191
-0.0601281
-0.0730717
-0.0828713
-0.0888791
-0.0904931
-0.0871736
-0.0784551
-0.0639286
-0.0431544
-0.0155274
0.0196789
0.0607315
-0.0058578
-0.0172509
-0.0276786
-0.0365038
-0.0431026
-0.046874
-0.0472559
-0.0437456
-0.0359277
-0.0235075
-0.00632417
0.015728
0.0430668
0.0781382
0.133802
-0.00263619
-0.00761717
-0.0117264
-0.0143908
-0.0150519
-0.0131773
-0.00827719
6.99514e-05
0.0121774
0.0281876
0.0479839
0.0710678
0.0963631
0.122432
0.153653
0.000387811
0.00142551
0.00324689
0.00636622
0.011283
0.0184719
0.0283662
0.0413324
0.0576253
0.0773077
0.100097
0.125008
0.149181
0.163281
0.130877
0.00323458
0.00993835
0.0173435
0.0259102
0.0360858
0.0482965
0.0629353
0.0803425
0.100771
0.12432
0.150821
0.179603
0.209049
0.236546
0.26743
0.00592324
0.0179785
0.0306582
0.0443724
0.0595212
0.0764896
0.0956418
0.117313
0.141799
0.16933
0.200039
0.233878
0.27034
0.307595
0.339182
0.00847172
0.0255997
0.0432793
0.0618738
0.0817389
0.103221
0.12666
0.15239
0.180763
0.212178
0.247159
0.28647
0.331176
0.382703
0.446283
0.0108969
0.0328521
0.05529
0.0785284
0.102879
0.12865
0.156147
0.185693
0.217667
0.252597
0.291342
0.335436
0.387374
0.449577
0.51473
0.0132149
0.0397841
0.0667698
0.0944458
0.12308
0.152935
0.184272
0.217371
0.252577
0.290419
0.33189
0.379083
0.436541
0.514546
0.640684
0.015441
0.0464413
0.0777951
0.109733
0.142479
0.176245
0.211234
0.247646
0.285712
0.325777
0.368551
0.415739
0.471535
0.546243
0.665503
0.0175896
0.0528676
0.0884397
0.124496
0.161215
0.19876
0.237266
0.276833
0.317513
0.359309
0.402236
0.446559
0.493486
0.547148
0.61888
0.0196746
0.0591042
0.098773
0.138833
0.179424
0.220662
0.262621
0.305306
0.34859
0.392108
0.43504
0.475712
0.51083
0.535645
0.560799
0.0217084
0.0651891
0.108859
0.152838
0.19723
0.242117
0.287531
0.333419
0.379556
0.425362
0.469501
0.508865
0.535386
0.524043
0.378244
0.0237026
0.0711568
0.118756
0.16659
0.214739
0.26326
0.312171
0.361418
0.410801
0.459819
0.507361
0.551082
0.586291
0.605932
0.619834
0.0256675
0.0770381
0.128514
0.18016
0.232035
0.284186
0.336637
0.389381
0.442348
0.495345
0.547951
0.599349
0.64807
0.691941
0.728058
0.0276126
0.0828607
0.138177
0.193605
0.249186
0.304957
0.360959
0.417249
0.473924
0.531183
0.589451
0.649612
0.713309
0.783452
0.868657
0.0295462
0.08865
0.147787
0.206979
0.266248
0.325621
0.385142
0.444909
0.505146
0.566365
0.629702
0.697535
0.774164
0.864629
0.95999
0.0314767
0.0944301
0.157383
0.220334
0.283283
0.346234
0.409212
0.472303
0.53574
0.600125
0.666906
0.739473
0.825501
0.942542
1.13596
0.0334118
0.100224
0.167003
0.233724
0.300359
0.36688
0.433263
0.499513
0.565731
0.632273
0.700172
0.772191
0.855389
0.967558
1.15466
0.0353589
0.106056
0.176688
0.247207
0.317559
0.387673
0.45746
0.526802
0.595549
0.663531
0.730658
0.797279
0.86524
0.940676
1.03765
0.0373251
0.111945
0.186473
0.26084
0.334966
0.408743
0.482021
0.554559
0.625946
0.69543
0.761576
0.821568
0.869962
0.898964
0.925301
0.0393166
0.117912
0.196393
0.274674
0.352657
0.430211
0.50715
0.583168
0.657711
0.729694
0.796846
0.854043
0.888201
0.859226
0.612485
0.0413385
0.123972
0.206473
0.288747
0.370686
0.452156
0.532974
0.612854
0.691298
0.767354
0.839105
0.902648
0.950329
0.970822
0.979046
0.0433948
0.130137
0.216734
0.303085
0.389083
0.474603
0.559502
0.643589
0.726588
0.808041
0.887131
0.962394
1.03139
1.09106
1.13887
0.0454886
0.136415
0.227187
0.3177
0.40785
0.497531
0.586648
0.675134
0.762997
0.850407
0.937877
1.02661
1.11902
1.21963
1.34143
0.0476219
0.142812
0.23784
0.332599
0.426983
0.520898
0.614284
0.707165
0.799767
0.892768
0.987802
1.08839
1.20102
1.3336
1.4734
0.0497967
0.149334
0.248702
0.347788
0.44648
0.54468
0.642323
0.739442
0.836309
0.933762
1.03394
1.1419
1.26926
1.44266
1.73057
0.0520146
0.155985
0.25978
0.363279
0.466358
0.568894
0.670776
0.771944
0.872491
0.972911
1.07473
1.18207
1.30558
1.47233
1.7526
0.0542768
0.162771
0.271085
0.379091
0.486651
0.593606
0.699772
0.804927
0.908807
1.01113
1.11175
1.21113
1.31196
1.42327
1.56475
0.0565842
0.169694
0.282623
0.395242
0.5074
0.61891
0.729518
0.838841
0.946244
1.05059
1.1497
1.23929
1.31111
1.35337
1.39078
0.0589362
0.176752
0.294396
0.411741
0.528635
0.644884
0.760204
0.874134
0.985846
1.09371
1.19432
1.27992
1.33081
1.28694
0.916774
0.061331
0.183942
0.306396
0.428579
0.550354
0.671545
0.7919
0.911013
1.02816
1.14192
1.24942
1.34477
1.41637
1.4472
1.45905
0.0637649
0.191251
0.318604
0.445728
0.572513
0.698828
0.824504
0.949304
1.07285
1.1945
1.31303
1.42621
1.5303
1.62074
1.69404
0.0662326
0.198663
0.330989
0.463138
0.595032
0.726596
0.857763
0.988508
1.11891
1.24927
1.3804
1.51406
1.65376
1.80627
1.99083
0.0687276
0.206158
0.343516
0.48075
0.617814
0.754678
0.891358
1.028
1.16503
1.30355
1.44606
1.5978
1.76839
1.96964
2.1831
0.0712429
0.213715
0.356145
0.498505
0.640768
0.782927
0.925026
1.06725
1.21015
1.35509
1.50536
1.66854
1.8618
2.12463
2.55799
0.0737711
0.22131
0.36884
0.51635
0.663826
0.811255
0.958645
1.10609
1.25389
1.40297
1.55576
1.71849
1.90696
2.16129
2.58574
0.0763042
0.228922
0.381566
0.534243
0.686947
0.839645
0.99227
1.1447
1.29678
1.44832
1.59931
1.75066
1.90644
2.07992
2.29868
0.0788339
0.236525
0.394284
0.552141
0.710102
0.868122
1.02606
1.18361
1.34008
1.49407
1.64267
1.77984
1.89367
1.96718
2.03661
0.0813501
0.244091
0.406949
0.569989
0.733244
0.896687
1.06017
1.2233
1.38514
1.54361
1.69402
1.82532
1.90894
1.85737
1.33183
0.0838409
0.251583
0.419504
0.587709
0.756283
0.925257
1.09456
1.26391
1.43256
1.59877
1.75868
1.90399
2.01813
2.07676
2.11189
0.0862925
0.25896
0.431875
0.605195
0.779071
0.95363
1.12896
1.30505
1.4817
1.65834
1.83353
2.00438
2.16592
2.31256
2.44231
0.0886894
0.266174
0.443978
0.622316
0.801411
0.981501
1.16286
1.34582
1.53089
1.71892
1.91143
2.11133
2.32409
2.56016
2.84772
0.0910152
0.273174
0.455723
0.63893
0.823085
1.00852
1.19567
1.38516
1.57806
1.77642
1.98424
2.20943
2.46613
2.77208
3.10455
0.093254
0.279912
0.467023
0.654903
0.843893
1.03439
1.22689
1.42216
1.62148
1.82736
2.04502
2.2857
2.57401
2.96565
3.60073
0.095391
0.286342
0.477802
0.670123
0.863679
1.05888
1.25623
1.45637
1.66036
1.87016
2.08987
2.32897
2.61017
2.99024
3.61735
0.0974132
0.292425
0.487994
0.684502
0.882342
1.08192
1.28364
1.48794
1.69525
1.90608
2.1213
2.34306
2.57773
2.84334
3.17192
0.099309
0.298126
0.497545
0.697973
0.899819
1.10348
1.3093
1.51745
1.72771
1.93898
2.14823
2.34825
2.52385
2.65277
2.7852
0.101068
0.303417
0.506406
0.710472
0.916055
1.12358
1.33336
1.54551
1.75948
1.97331
2.1816
2.37047
2.50239
2.45984
1.78386
0.102682
0.308268
0.514529
0.721932
0.930965
1.14211
1.35582
1.57232
1.79137
2.01149
2.22848
2.43231
2.6021
2.70686
2.7907
0.104142
0.312655
0.521867
0.732275
0.944421
1.1589
1.37634
1.59739
1.82254
2.05187
2.28453
2.51785
2.74699
2.96844
3.19147
0.105444
0.316562
0.528382
0.741422
0.956273
1.17364
1.39439
1.61963
1.85081
2.08996
2.34014
2.60634
2.89726
3.22898
3.63945
0.106589
0.319986
0.534059
0.749322
0.966391
1.18605
1.40935
1.63776
1.87356
2.1204
2.38464
2.6777
3.01921
3.43487
3.90813
0.107582
0.322943
0.538915
0.755976
0.974723
1.19595
1.42076
1.65079
1.88866
2.13876
2.40914
2.71547
3.0897
3.60081
4.41427
0.10844
0.32548
0.543022
0.761469
0.981346
1.20337
1.42855
1.6584
1.89527
2.14304
2.40871
2.70611
3.06516
3.55682
4.36775
0.109188
0.327672
0.546503
0.765976
0.986489
1.2086
1.43312
1.66115
1.89432
2.13489
2.38626
2.65398
2.94855
3.29114
3.70219
0.10986
0.329626
0.549544
0.769766
0.990529
1.21218
1.43524
1.66035
1.88823
2.11926
2.35248
2.58323
2.7986
2.97796
3.18215
0.110501
0.331475
0.552375
0.773187
0.993953
1.2148
1.43594
1.65764
1.87996
2.1021
2.32044
2.52318
2.67366
2.64757
1.94169
0.111162
0.333378
0.555271
0.776642
0.997328
1.21722
1.43627
1.6545
1.87183
2.08758
2.29922
2.49946
2.67134
2.78927
2.90784
0.1119
0.335506
0.558529
0.780577
1.00126
1.22021
1.43717
1.65199
1.86479
2.07592
2.28592
2.49546
2.70648
2.93053
3.21851
0.112771
0.338038
0.562466
0.78546
1.00639
1.22461
1.43955
1.65089
1.8589
2.06503
2.27295
2.49043
2.73258
3.02739
3.42285
0.113834
0.341152
0.567399
0.791779
1.0134
1.23128
1.44443
1.6521
1.85432
2.05289
2.25335
2.46827
2.72211
3.05436
3.49902
0.115138
0.34501
0.573625
0.800012
1.02301
1.24123
1.4531
1.6571
1.85226
2.03943
2.22369
2.41907
2.65718
3.00327
3.58698
0.116723
0.349738
0.581397
0.810596
1.03593
1.25557
1.46724
1.66823
1.85575
2.02798
2.18631
2.3402
2.51725
2.78715
3.34196
0.118608
0.355406
0.590874
0.823859
1.05278
1.27545
1.48879
1.68868
1.86985
2.02618
2.152
2.24522
2.31283
2.37317
2.40359
0.120781
0.361994
0.602069
0.83993
1.07398
1.30178
1.51967
1.72213
1.90118
2.04554
2.14032
2.16803
2.11346
1.97995
1.86026
0.123195
0.369368
0.614793
0.858637
1.09949
1.33499
1.56122
1.77182
1.95657
2.09932
2.17521
2.14796
1.96891
1.57712
0.853079
0.125758
0.377254
0.628604
0.879402
1.1287
1.3746
1.6136
1.83943
2.04111
2.1995
2.28173
2.23329
1.97209
1.40499
0.527906
0.128332
0.385234
0.642786
0.901191
1.16024
1.41898
1.67508
1.92379
2.1557
2.35258
2.47899
2.46635
2.18771
1.44808
0.187952
0.130739
0.392755
0.656359
0.922509
1.19197
1.46514
1.74168
2.01978
2.2946
2.55461
2.77282
2.88413
2.72344
1.85257
-0.904956
0.132769
0.399165
0.668149
0.941503
1.2211
1.50893
1.80715
2.11803
2.44378
2.78567
3.14093
3.49079
3.75225
3.56715
1.32065
0.134201
0.403767
0.676885
0.956134
1.24447
1.54546
1.86379
2.20594
2.58176
3.0075
3.51286
4.15889
5.091
6.71278
10.3112
10.1097
6.38181
4.74561
3.82817
3.2065
2.72923
2.33303
1.98726
1.67518
1.3867
1.11522
0.856045
0.605641
0.361125
0.120005
0.703779
3.11036
3.35193
3.12705
2.81066
2.48865
2.17993
1.88706
1.60857
1.34217
1.08558
0.836698
0.593619
0.354582
0.117931
-1.57545
1.34244
2.28205
2.48938
2.41868
2.23882
2.01583
1.77686
1.53354
1.2908
1.05056
0.813301
0.578772
0.346371
0.115306
-0.248411
0.948248
1.72059
2.04473
2.10248
2.01898
1.86281
1.66968
1.45808
1.23767
1.01345
0.787981
0.562431
0.337224
0.112363
-0.0974131
0.848636
1.47032
1.78505
1.88435
1.8496
1.73547
1.57531
1.38873
1.18714
0.97719
0.762693
0.545836
0.327828
0.109322
0.186074
0.974214
1.43317
1.67494
1.75933
1.73533
1.64008
1.49926
1.32976
1.14241
0.944057
0.739025
0.530026
0.31877
0.106373
1.10544
1.32835
1.54682
1.6741
1.70956
1.67055
1.57632
1.4431
1.28316
1.10528
0.915543
0.718098
0.515771
0.310499
0.103663
1.6016
1.68555
1.72379
1.73701
1.71149
1.64412
1.53963
1.40549
1.24901
1.07638
0.892362
0.700548
0.503553
0.303309
0.101291
2.46017
2.07447
1.91814
1.8268
1.74248
1.64345
1.52353
1.38336
1.22607
1.05535
0.874588
0.686585
0.493583
0.297349
0.0993095
2.72064
2.3041
2.06734
1.91171
1.78369
1.65728
1.5215
1.3731
1.21244
1.0413
0.861831
0.676087
0.485854
0.292639
0.0977296
2.76621
2.40887
2.16019
1.97743
1.82378
1.6776
1.52821
1.37136
1.20608
1.03302
0.853426
0.668703
0.480192
0.289105
0.0965304
2.7582
2.43819
2.20724
2.02293
1.85868
1.70013
1.54012
1.37545
1.20512
1.02927
0.848578