/*--------------------------------*- C++ -*----------------------------------*\
| =========                 |                                                 |
| \\      /  F ield         | OpenFOAM: The Open Source CFD Toolbox           |
|  \\    /   O peration     | Version:  5.x                                   |
|   \\  /    A nd           | Web:      www.OpenFOAM.org                      |
|    \\/     M anipulation  |                                                 |
\*---------------------------------------------------------------------------*/
FoamFile
{
    version     2.0;
    format      ascii;
    class       volScalarField;
    location    "3.1";
    object      gradTx;
}
// * * * * * * * * * * * * * * * * * * * * * * * * * * * * * * * * * * * * * //

dimensions      [0 -1 0 1 0 0 0];

internalField   nonuniform List<scalar> 
6300
(
-48.0458
-48.022
-47.9742
-47.9024
-47.8062
-47.6857
-47.5406
-47.3711
-47.1775
-46.9606
-46.7213
-46.461
-46.1816
-45.8848
-45.5724
-48.0697
-48.0459
-47.9983
-47.9266
-47.8307
-47.7102
-47.5651
-47.3952
-47.201
-46.983
-46.7422
-46.4803
-46.199
-45.9005
-45.5868
-48.1173
-48.0937
-48.0464
-47.9752
-47.8797
-47.7595
-47.6142
-47.4438
-47.2482
-47.0281
-46.7845
-46.5189
-46.2337
-45.9315
-45.6149
-48.1884
-48.1652
-48.1186
-48.0481
-47.9534
-47.8337
-47.6886
-47.5174
-47.3201
-47.0968
-46.8486
-46.5773
-46.2855
-45.9769
-45.6551
-48.2828
-48.2601
-48.2145
-48.1454
-48.052
-47.9335
-47.7889
-47.6173
-47.4178
-47.1905
-46.936
-46.6561
-46.3543
-46.0354
-45.705
-48.3999
-48.378
-48.3339
-48.2668
-48.1758
-48.0595
-47.9164
-47.7449
-47.5436
-47.3114
-47.0486
-46.757
-46.4404
-46.1055
-45.7608
-48.5389
-48.5181
-48.4762
-48.4122
-48.3248
-48.2123
-48.0723
-47.9024
-47.7001
-47.463
-47.1903
-46.8827
-46.5449
-46.1853
-45.8171
-48.6986
-48.6794
-48.6406
-48.581
-48.4991
-48.3924
-48.2581
-48.0924
-47.8913
-47.6505
-47.3666
-47.0389
-46.671
-46.274
-45.867
-48.8775
-48.8604
-48.8257
-48.7722
-48.698
-48.6002
-48.4752
-48.3179
-48.1222
-47.8809
-47.587
-47.2352
-46.8265
-46.3727
-45.9015
-49.0734
-49.059
-49.0297
-48.9842
-48.9204
-48.8353
-48.7245
-48.5818
-48.3986
-48.1641
-47.8651
-47.4886
-47.027
-46.4887
-45.9112
-49.2836
-49.2725
-49.2498
-49.2143
-49.1641
-49.0962
-49.0058
-48.8861
-48.7265
-48.5118
-48.2208
-47.827
-47.3043
-46.6442
-45.8891
-49.505
-49.4977
-49.4827
-49.4591
-49.4255
-49.3793
-49.3165
-49.2303
-49.1095
-48.9357
-48.6793
-48.2943
-47.7189
-46.8948
-45.8393
-49.7336
-49.7304
-49.724
-49.7139
-49.6994
-49.6792
-49.6506
-49.609
-49.5454
-49.4424
-49.2663
-48.9521
-48.3823
-47.3768
-45.7997
-49.9653
-49.9665
-49.969
-49.9731
-49.9791
-49.9873
-49.9977
-50.0098
-50.0207
-50.0222
-49.9913
-49.8657
-49.4812
-48.4305
-45.9366
-50.1957
-50.2011
-50.2124
-50.2304
-50.2565
-50.293
-50.3432
-50.4116
-50.5054
-50.6345
-50.8108
-51.0383
-51.2461
-50.9273
-47.1775
-45.2739
-44.9921
-44.7007
-44.3991
-44.0863
-43.7609
-43.4215
-43.0668
-42.6956
-42.3073
-41.9021
-41.4805
-41.044
-40.5943
-40.1339
-39.6653
-39.1912
-38.7145
-38.2382
-37.7652
-37.2985
-36.8408
-36.395
-35.9636
-35.5488
-35.1525
-34.7763
-34.4212
-34.088
-33.7772
-33.4886
-33.222
-32.9768
-32.7521
-32.5468
-32.3598
-32.19
-32.0362
-31.8972
-31.7719
-31.6593
-31.5583
-31.468
-31.3879
-31.3175
-31.2566
-31.2055
-31.1648
-31.1351
-31.1177
-31.1133
-31.1232
-31.1481
-31.1889
-31.2458
-31.3193
-31.4091
-31.515
-31.6365
-31.7728
-31.9231
-32.0863
-32.2615
-32.4479
-32.6444
-32.8504
-33.0652
-33.288
-33.5183
-33.7554
-33.9988
-34.2481
-34.5029
-34.763
-35.0282
-35.2982
-35.5731
-35.8525
-36.1364
-36.4245
-36.7166
-37.0125
-37.3119
-37.6144
-37.9196
-38.2267
-38.5346
-38.8422
-39.1476
-39.449
-45.2877
-45.0061
-44.7155
-44.4154
-44.1045
-43.7812
-43.4438
-43.0907
-42.7203
-42.332
-41.9257
-41.5023
-41.063
-40.6101
-40.146
-39.6734
-39.1952
-38.7143
-38.2337
-37.7565
-37.2856
-36.8241
-36.3746
-35.94
-35.5225
-35.124
-34.7461
-34.3899
-34.0563
-33.7454
-33.4573
-33.1916
-32.9476
-32.7244
-32.5207
-32.3354
-32.1673
-32.0152
-31.8778
-31.7541
-31.6428
-31.5431
-31.4538
-31.3743
-31.304
-31.2428
-31.1909
-31.149
-31.118
-31.099
-31.0932
-31.1017
-31.1256
-31.1657
-31.2223
-31.2958
-31.3861
-31.4928
-31.6153
-31.7529
-31.9045
-32.0691
-32.2456
-32.4331
-32.6308
-32.8378
-33.0535
-33.2772
-33.5083
-33.7462
-33.9902
-34.24
-34.4952
-34.7555
-35.0209
-35.2911
-35.5662
-35.8459
-36.13
-36.4184
-36.7108
-37.0071
-37.307
-37.6102
-37.9164
-38.225
-38.5348
-38.8447
-39.1529
-39.4573
-45.3144
-45.0331
-44.7442
-44.4473
-44.1406
-43.822
-43.4891
-43.1394
-42.771
-42.3827
-41.9744
-41.5469
-41.102
-40.6423
-40.1705
-39.6898
-39.2032
-38.7139
-38.2247
-37.7389
-37.2597
-36.7901
-36.3333
-35.8921
-35.4691
-35.0661
-34.685
-34.3267
-33.992
-33.6812
-33.3942
-33.1304
-32.889
-32.6689
-32.4686
-32.2868
-32.1221
-31.9733
-31.8392
-31.7186
-31.6103
-31.5131
-31.426
-31.3477
-31.2778
-31.2159
-31.1623
-31.1179
-31.0838
-31.0615
-31.0526
-31.0584
-31.0802
-31.1188
-31.1747
-31.2483
-31.3395
-31.4478
-31.5726
-31.7128
-31.8672
-32.0347
-32.2139
-32.4039
-32.6037
-32.8127
-33.0302
-33.2557
-33.4885
-33.7279
-33.9732
-34.224
-34.4798
-34.7406
-35.0063
-35.2768
-35.5523
-35.8325
-36.1172
-36.4062
-36.6992
-36.996
-37.2968
-37.6013
-37.9095
-38.2209
-38.5346
-38.8492
-39.1629
-39.4734
-45.352
-45.0708
-44.7848
-44.4932
-44.1939
-43.8836
-43.5587
-43.2153
-42.8506
-42.4625
-42.0509
-41.6168
-41.1627
-40.692
-40.2082
-39.715
-39.2156
-38.7133
-38.2112
-37.7123
-37.2201
-36.7381
-36.2698
-35.8185
-35.3869
-34.9773
-34.5913
-34.2298
-33.8937
-33.5831
-33.2979
-33.0373
-32.8002
-32.5851
-32.3902
-32.2138
-32.0544
-31.9106
-31.7814
-31.6657
-31.562
-31.4692
-31.3855
-31.3096
-31.2404
-31.1773
-31.1209
-31.0722
-31.0329
-31.0051
-30.991
-30.9924
-31.0107
-31.047
-31.102
-31.1758
-31.2684
-31.3794
-31.5077
-31.6523
-31.8113
-31.9833
-32.1668
-32.3604
-32.5634
-32.7752
-32.9955
-33.2237
-33.4591
-33.7009
-33.9482
-34.2005
-34.4572
-34.7184
-34.9844
-35.2553
-35.5313
-35.8123
-36.098
-36.3879
-36.6816
-36.9791
-37.2807
-37.5867
-37.8975
-38.213
-38.5325
-38.8546
-39.1771
-39.4973
-45.397
-45.1155
-44.8337
-44.5505
-44.263
-43.9664
-43.6548
-43.3223
-42.9639
-42.5766
-42.1599
-41.7156
-41.2476
-40.7607
-40.2597
-39.7491
-39.2326
-38.713
-38.1932
-37.6763
-37.1661
-36.6666
-36.1822
-35.7168
-35.2736
-34.855
-34.4624
-34.0969
-33.759
-33.4489
-33.1664
-32.9107
-32.6802
-32.4726
-32.2855
-32.1168
-31.9645
-31.8274
-31.7048
-31.5956
-31.4987
-31.4124
-31.3343
-31.2622
-31.1943
-31.1297
-31.0687
-31.0131
-30.9656
-30.9294
-30.9074
-30.9022
-30.9156
-30.9488
-31.0022
-31.0764
-31.1711
-31.2859
-31.4198
-31.5709
-31.737
-31.9157
-32.105
-32.3034
-32.5103
-32.7256
-32.9493
-33.1811
-33.4203
-33.6657
-33.9161
-34.1703
-34.4279
-34.6893
-34.955
-35.2261
-35.5028
-35.7852
-36.0724
-36.3636
-36.6581
-36.956
-37.2578
-37.5648
-37.8783
-38.1989
-38.5262
-38.8588
-39.194
-39.5283
-45.444
-45.1609
-44.8846
-44.6142
-44.3455
-44.071
-43.7814
-43.4667
-43.1189
-42.7331
-42.3087
-41.8489
-41.3601
-40.8498
-40.3253
-39.7922
-39.2541
-38.7132
-38.1713
-37.6311
-37.0969
-36.5737
-36.0675
-35.5834
-35.1252
-34.6954
-34.295
-33.9246
-33.5845
-33.2753
-32.9969
-32.7483
-32.5274
-32.3309
-32.155
-31.9964
-31.8531
-31.7239
-31.609
-31.5082
-31.4206
-31.344
-31.2749
-31.2093
-31.1439
-31.077
-31.0091
-30.9428
-30.8826
-30.8334
-30.7999
-30.7855
-30.7924
-30.8214
-30.873
-30.9475
-31.045
-31.1653
-31.3071
-31.468
-31.6445
-31.8328
-32.03
-32.2342
-32.4452
-32.6639
-32.8913
-33.1278
-33.3725
-33.6234
-33.8783
-34.135
-34.3932
-34.6535
-34.9178
-35.1883
-35.466
-35.7507
-36.0408
-36.3343
-36.6296
-36.9266
-37.2269
-37.5332
-37.8483
-38.1745
-38.5119
-38.8587
-39.2116
-39.5657
-45.4845
-45.1966
-44.9269
-44.6755
-44.4363
-44.1977
-43.944
-43.659
-43.3288
-42.9456
-42.5086
-42.0243
-41.5036
-40.9597
-40.4036
-39.8428
-39.28
-38.715
-38.1471
-37.5778
-37.0119
-36.4569
-35.9214
-35.4129
-34.9364
-34.4938
-34.0848
-33.7088
-33.3661
-33.0577
-32.7847
-32.5466
-32.3401
-32.1599
-31.9998
-31.8546
-31.7215
-31.6004
-31.4933
-31.4022
-31.3272
-31.2653
-31.2107
-31.1564
-31.096
-31.0262
-30.9474
-30.8642
-30.784
-30.7152
-30.6651
-30.6385
-30.6374
-30.6618
-30.7111
-30.7856
-30.8862
-31.0138
-31.1672
-31.3428
-31.535
-31.7374
-31.9449
-32.1553
-32.3691
-32.5896
-32.8202
-33.0625
-33.3155
-33.5754
-33.8374
-34.0977
-34.355
-34.6116
-34.8717
-35.1399
-35.4189
-35.7081
-36.004
-36.3019
-36.5982
-36.8923
-37.187
-37.4882
-37.8021
-38.1335
-38.4834
-38.8495
-39.2268
-39.6084
-45.5058
-45.2062
-44.9432
-44.7192
-44.5264
-44.3461
-44.1521
-43.9163
-43.6153
-43.2356
-42.7771
-42.252
-41.6811
-41.0871
-40.489
-39.8965
-39.3095
-38.7212
-38.1252
-37.5199
-36.9116
-36.3123
-35.7366
-35.1966
-34.6992
-34.2441
-33.8275
-33.4457
-33.0985
-32.7894
-32.5228
-32.2995
-32.1152
-31.9603
-31.8235
-31.6958
-31.573
-31.4572
-31.355
-31.2734
-31.2152
-31.1764
-31.1466
-31.1126
-31.0622
-30.9886
-30.8923
-30.7815
-30.6692
-30.5702
-30.4967
-30.4552
-30.4461
-30.4664
-30.513
-30.5861
-30.689
-30.8253
-30.9954
-31.1939
-31.4108
-31.6346
-31.8559
-32.0713
-32.2835
-32.5008
-32.7319
-32.9819
-33.2486
-33.5243
-33.7989
-34.0643
-34.3179
-34.5644
-34.8135
-35.0756
-35.3568
-35.6556
-35.964
-36.2715
-36.5697
-36.8566
-37.1375
-37.4244
-37.7304
-38.0651
-38.431
-38.8239
-39.2353
-39.6552
-45.4887
-45.1632
-44.9034
-44.7181
-44.5986
-44.5145
-44.4206
-44.2678
-44.0151
-43.6393
-43.1416
-42.5461
-41.8918
-41.2209
-40.5665
-39.9427
-39.3408
-38.739
-38.1167
-37.4668
-36.7986
-36.1342
-35.5005
-34.9196
-34.4012
-33.9394
-33.5204
-33.1329
-32.7763
-32.4605
-32.1986
-31.9969
-31.8484
-31.7348
-31.6346
-31.5303
-31.4148
-31.2948
-31.1873
-31.1111
-31.0757
-31.0749
-31.0891
-31.0926
-31.0621
-30.9839
-30.8586
-30.7012
-30.5357
-30.389
-30.2824
-30.2253
-30.2129
-30.2334
-30.2771
-30.344
-30.4438
-30.5883
-30.7827
-31.0185
-31.2769
-31.5353
-31.7757
-31.9916
-32.1907
-32.3919
-32.6167
-32.8769
-33.1686
-33.4748
-33.7736
-34.0476
-34.291
-34.5133
-34.7363
-34.9837
-35.2691
-35.5889
-35.9249
-36.254
-36.5574
-36.8289
-37.0791
-37.3325
-37.6169
-37.9515
-38.3395
-38.7709
-39.231
-39.7049
-45.4052
-45.0253
-44.7567
-44.6226
-44.6197
-44.6972
-44.7741
-44.7634
-44.5923
-44.2187
-43.6469
-42.9251
-42.1267
-41.3309
-40.6001
-39.9576
-39.3723
-38.7863
-38.1484
-37.4402
-36.6803
-35.9123
-35.1886
-34.5528
-34.0218
-33.5734
-33.1681
-32.7761
-32.3958
-32.0543
-31.788
-31.6182
-31.5314
-31.4905
-31.452
-31.3812
-31.2636
-31.1147
-30.9749
-30.8902
-30.8868
-30.9523
-31.0472
-31.1217
-31.131
-31.0474
-30.8716
-30.6325
-30.3754
-30.1503
-29.9971
-29.9311
-29.9327
-29.967
-30.0078
-30.0549
-30.1341
-30.2796
-30.5103
-30.8109
-31.143
-31.4617
-31.731
-31.9363
-32.0945
-32.2493
-32.4502
-32.7266
-33.0678
-33.4357
-33.7838
-34.0747
-34.2941
-34.4612
-34.6239
-34.8366
-35.1318
-35.4984
-35.8956
-36.2732
-36.5906
-36.8316
-37.016
-37.1955
-37.4306
-37.7609
-38.1848
-38.6763
-39.2066
-39.7557
-45.2137
-44.7276
-44.4162
-44.3381
-44.5254
-44.8807
-45.2538
-45.4903
-45.4611
-45.0839
-44.3684
-43.4144
-42.3582
-41.3474
-40.5069
-39.8903
-39.4051
-38.9086
-38.2818
-37.488
-36.5741
-35.6269
-34.7501
-34.0356
-33.5238
-33.1455
-32.7971
-32.4026
-31.9598
-31.54
-31.2388
-31.1202
-31.1485
-31.2429
-31.3165
-31.2996
-31.1578
-30.9215
-30.6837
-30.5527
-30.5988
-30.7874
-31.0349
-31.2453
-31.334
-31.2438
-30.9761
-30.5899
-30.1695
-29.808
-29.5865
-29.5397
-29.6054
-29.6915
-29.7297
-29.7198
-29.7291
-29.8484
-30.1373
-30.558
-31.0285
-31.4594
-31.7783
-31.9489
-32.0034
-32.0401
-32.1748
-32.4829
-32.9285
-33.4249
-33.8761
-34.2048
-34.3726
-34.415
-34.4392
-34.5706
-34.8916
-35.3638
-35.894
-36.3788
-36.7338
-36.9154
-36.9593
-36.9784
-37.1068
-37.4351
-37.9325
-38.5254
-39.1547
-39.8034
-44.8495
-44.1782
-43.7399
-43.6714
-44.1892
-45.0389
-45.9302
-46.5998
-46.8312
-46.4364
-45.4337
-44.051
-42.5244
-41.1187
-40.0918
-39.6337
-39.4546
-39.2186
-38.6558
-37.7091
-36.5162
-35.2405
-34.0782
-33.2266
-32.8341
-32.6746
-32.4929
-32.099
-31.491
-30.8551
-30.427
-30.4113
-30.6706
-31.0256
-31.3115
-31.3984
-31.1885
-30.731
-30.239
-29.9606
-30.1058
-30.5384
-31.0762
-31.5443
-31.7948
-31.6963
-31.2516
-30.597
-29.8788
-29.2644
-28.9247
-28.9866
-29.249
-29.485
-29.521
-29.357
-29.166
-29.1732
-29.5747
-30.2335
-30.9713
-31.6182
-32.0392
-32.1287
-31.938
-31.69
-31.6495
-32.0411
-32.7162
-33.479
-34.1447
-34.5664
-34.6312
-34.3949
-34.0997
-34.0316
-34.4331
-35.1453
-35.9576
-36.6712
-37.1262
-37.1969
-36.9382
-36.6036
-36.4945
-36.8655
-37.5425
-38.3218
-39.0744
-39.8266
-44.1731
-43.2932
-42.5312
-42.1606
-43.3751
-45.1372
-46.9261
-48.3407
-49.1033
-48.6645
-47.0465
-44.8951
-42.5168
-40.3451
-38.8577
-38.9759
-39.5864
-39.9997
-39.5828
-38.2853
-36.5778
-34.6912
-32.9593
-31.7569
-31.8094
-32.2363
-32.4947
-32.104
-31.0627
-29.8717
-29.0218
-29.3067
-30.0557
-30.9083
-31.5934
-31.9254
-31.5761
-30.5908
-29.487
-28.7594
-29.1994
-30.1382
-31.2186
-32.1574
-32.7586
-32.6481
-31.8297
-30.6963
-29.4392
-28.3259
-27.685
-28.1451
-28.9311
-29.5669
-29.6007
-29.0336
-28.3176
-27.9303
-28.6418
-29.7956
-31.0448
-32.1028
-32.7773
-32.7123
-31.955
-31.041
-30.5021
-31.1909
-32.3774
-33.6728
-34.7644
-35.4419
-35.3233
-34.4594
-33.4328
-32.8159
-33.527
-34.7821
-36.1631
-37.3355
-38.0714
-37.9523
-37.0256
-35.9036
-35.1904
-35.8547
-37.0044
-38.1561
-38.9943
-39.7149
-42.6596
-42.2385
-40.759
-38.3672
-41.7728
-45.197
-48.4612
-51.0205
-53.1055
-52.5907
-49.4276
-46.066
-42.2119
-38.5862
-35.3117
-37.6092
-40.0025
-41.9763
-41.7783
-39.452
-36.8975
-33.9196
-31.0779
-28.4804
-30.2459
-32.0408
-33.4316
-33.0461
-30.8505
-28.3971
-25.983
-27.5341
-29.2919
-31.0325
-32.3845
-33.4335
-32.88
-30.6214
-28.1939
-25.8768
-27.5749
-29.5347
-31.5653
-33.2568
-34.7475
-34.6197
-32.8617
-30.9738
-28.7929
-26.7073
-24.8599
-26.8344
-28.8297
-30.5158
-30.546
-28.9244
-26.9962
-25.1053
-27.0721
-29.2205
-31.3937
-33.1395
-34.5803
-34.2928
-32.1977
-29.8519
-27.5867
-29.6238
-31.882
-34.1599
-35.9801
-37.4638
-37.0882
-34.7582
-32.1756
-29.6878
-31.8372
-34.2375
-36.6683
-38.6281
-40.2474
-39.8703
-37.394
-34.6147
-31.9023
-34.1444
-36.4631
-38.4413
-39.083
-38.9064
-37.4351
-42.7078
-40.3006
-26.2257
-40.1438
-45.4875
-51.0114
-54.3835
-60.8516
-60.331
-52.0947
-47.9465
-41.5785
-36.3217
-23.7425
-36.1049
-41.023
-47.0808
-47.0389
-40.9475
-37.8274
-32.9524
-28.845
-18.9216
-28.6404
-32.4275
-36.9266
-36.5952
-31.0102
-26.8663
-17.2345
-25.4643
-28.5534
-31.7167
-33.6122
-37.25
-36.6399
-30.8956
-26.7423
-17.213
-25.5742
-28.8297
-32.4009
-34.646
-39.0677
-38.9392
-34.0815
-31.6735
-28.0099
-24.7462
-16.5316
-25.4942
-29.1737
-33.8497
-33.8703
-29.2572
-25.621
-16.7256
-25.241
-28.6098
-32.3583
-34.6156
-38.8722
-38.4761
-32.8017
-28.5467
-18.4758
-27.7385
-31.3579
-35.3059
-37.6802
-42.163
-41.6671
-35.4202
-30.7818
-19.8818
-29.7857
-33.6486
-37.8514
-40.4107
-45.2975
-44.8108
-38.1983
-33.2288
-21.4792
-32.3235
-36.4116
-40.6502
-40.3492
-34.4359
-39.7732
-40.1157
-40.4426
-40.7506
-41.0369
-41.2995
-41.5367
-41.7476
-41.9316
-42.0887
-42.2189
-42.3225
-42.3998
-42.4512
-42.4768
-39.7848
-40.1308
-40.4609
-40.7717
-41.0602
-41.3243
-41.5625
-41.7739
-41.958
-42.115
-42.2449
-42.3482
-42.4253
-42.4764
-42.5019
-39.8079
-40.1613
-40.4981
-40.8145
-41.1074
-41.3745
-41.6146
-41.8269
-42.0112
-42.1678
-42.2971
-42.3997
-42.4761
-42.5267
-42.5519
-39.8429
-40.208
-40.5552
-40.8802
-41.1797
-41.4513
-41.6939
-41.9073
-42.0915
-42.2473
-42.3755
-42.4768
-42.5521
-42.6019
-42.6267
-39.8899
-40.2719
-40.634
-40.971
-41.2792
-41.5565
-41.802
-42.0162
-42.1997
-42.354
-42.4801
-42.5795
-42.653
-42.7015
-42.7257
-39.9498
-40.3552
-40.7374
-41.0901
-41.4091
-41.6927
-41.941
-42.1551
-42.3368
-42.4881
-42.6111
-42.7074
-42.7783
-42.825
-42.8482
-40.0237
-40.4609
-40.8698
-41.2422
-41.5739
-41.8638
-42.1136
-42.3258
-42.5036
-42.6501
-42.7682
-42.86
-42.9273
-42.9715
-42.9934
-40.1138
-40.5945
-41.0383
-41.4347
-41.7798
-42.0746
-42.3231
-42.5302
-42.7011
-42.8401
-42.9509
-43.0365
-43.099
-43.1398
-43.16
-40.2241
-40.7645
-41.2536
-41.6781
-42.0356
-42.3313
-42.5734
-42.7704
-42.9298
-43.0576
-43.1583
-43.2356
-43.2916
-43.3281
-43.3462
-40.3612
-40.9854
-41.5332
-41.988
-42.353
-42.6413
-42.8684
-43.0477
-43.1895
-43.3014
-43.3887
-43.4551
-43.5032
-43.5344
-43.5498
-40.5354
-41.2824
-41.9053
-42.3873
-42.7468
-43.0126
-43.2112
-43.3621
-43.4786
-43.5692
-43.6393
-43.6925
-43.7309
-43.7559
-43.7682
-40.7608
-41.7031
-42.4175
-42.908
-43.2336
-43.451
-43.6016
-43.7108
-43.7932
-43.8569
-43.9063
-43.944
-43.9715
-43.9895
-43.9984
-41.0566
-42.3504
-43.1531
-43.5922
-43.8266
-43.9556
-44.0333
-44.0862
-44.1261
-44.1582
-44.1843
-44.2052
-44.221
-44.2315
-44.2369
-41.5039
-43.4884
-44.2533
-44.4813
-44.5232
-44.5106
-44.4897
-44.4744
-44.4666
-44.4649
-44.4669
-44.4708
-44.4749
-44.4782
-44.4801
-42.8056
-45.8442
-45.8897
-45.5569
-45.2723
-45.073
-44.9406
-44.855
-44.8008
-44.7673
-44.7471
-44.7354
-44.729
-44.7258
-44.7244
-50.4019
-50.4108
-50.4293
-50.4587
-50.5013
-50.5608
-50.6429
-50.7568
-50.9174
-51.1523
-51.5153
-52.1311
-53.3467
-56.3609
-66.1967
-50.5831
-50.5948
-50.6188
-50.657
-50.7121
-50.7886
-50.8935
-51.0379
-51.2405
-51.5339
-51.9802
-52.7079
-54.0072
-56.5635
-61.8641
-50.7562
-50.77
-50.7985
-50.8435
-50.9079
-50.9965
-51.1165
-51.2787
-51.5006
-51.8094
-52.2495
-52.8877
-53.7948
-54.8601
-54.7177
-50.9196
-50.9351
-50.9667
-51.0164
-51.0869
-51.1827
-51.31
-51.4782
-51.7001
-51.9938
-52.3812
-52.8806
-53.4725
-53.9955
-53.9684
-51.0723
-51.0887
-51.1223
-51.1747
-51.2483
-51.3468
-51.4753
-51.6403
-51.8499
-52.1129
-52.4349
-52.8093
-53.1981
-53.5128
-53.7056
-51.2135
-51.2304
-51.2649
-51.3182
-51.3923
-51.4901
-51.6151
-51.7713
-51.9626
-52.191
-52.4521
-52.728
-52.975
-53.1147
-53.073
-51.3429
-51.3598
-51.3942
-51.4471
-51.5199
-51.6145
-51.7332
-51.878
-52.0496
-52.2462
-52.4589
-52.6668
-52.8265
-52.8424
-52.4123
-51.4604
-51.477
-51.5107
-51.5621
-51.6322
-51.7222
-51.8333
-51.9659
-52.1194
-52.29
-52.4688
-52.6391
-52.7777
-52.8799
-53.1689
-51.5662
-51.5823
-51.6147
-51.6639
-51.7306
-51.8152
-51.9182
-52.0394
-52.1773
-52.3281
-52.4842
-52.6333
-52.7542
-52.7874
-52.4123
-51.6608
-51.6761
-51.707
-51.7536
-51.8163
-51.8953
-51.9905
-52.1014
-52.2263
-52.3622
-52.5043
-52.6471
-52.7915
-52.9785
-53.5151
-51.7446
-51.7591
-51.7882
-51.8321
-51.8907
-51.9641
-52.052
-52.1536
-52.2676
-52.3919
-52.5236
-52.6598
-52.7992
-52.9267
-52.8729
-51.8181
-51.8318
-51.8591
-51.9001
-51.9547
-52.0228
-52.1038
-52.1972
-52.3019
-52.4164
-52.5393
-52.6703
-52.8151
-53.0008
-53.386
-51.8821
-51.8949
-51.9204
-51.9586
-52.0093
-52.0723
-52.147
-52.233
-52.3293
-52.435
-52.549
-52.6711
-52.8027
-52.9361
-52.9768
-51.9371
-51.949
-51.9728
-52.0082
-52.0553
-52.1135
-52.1825
-52.2616
-52.3503
-52.4476
-52.5527
-52.6654
-52.7889
-52.9355
-53.1777
-51.9837
-51.9947
-52.0168
-52.0497
-52.0933
-52.1471
-52.2108
-52.2837
-52.3653
-52.4546
-52.5507
-52.6522
-52.7589
-52.8685
-52.9681
-52.0224
-52.0327
-52.0532
-52.0837
-52.1241
-52.1738
-52.2326
-52.2998
-52.3749
-52.4568
-52.5443
-52.6352
-52.727
-52.8081
-52.8295
-52.0538
-52.0634
-52.0824
-52.1108
-52.1481
-52.1942
-52.2485
-52.3105
-52.3797
-52.455
-52.535
-52.6178
-52.7024
-52.7888
-52.8942
-52.0785
-52.0874
-52.105
-52.1313
-52.166
-52.2087
-52.259
-52.3164
-52.3803
-52.4497
-52.5233
-52.599
-52.6765
-52.7562
-52.8474
-52.0968
-52.105
-52.1215
-52.1459
-52.1781
-52.2178
-52.2645
-52.3177
-52.377
-52.4414
-52.5094
-52.579
-52.6491
-52.7155
-52.7555
-52.1092
-52.1169
-52.1322
-52.155
-52.1849
-52.2218
-52.2653
-52.3149
-52.3702
-52.4304
-52.4939
-52.5587
-52.6242
-52.6927
-52.8041
-52.116
-52.1232
-52.1375
-52.1588
-52.1868
-52.2212
-52.2618
-52.3083
-52.3601
-52.4167
-52.4767
-52.5379
-52.5971
-52.6399
-52.5988
-52.1177
-52.1245
-52.1378
-52.1577
-52.1839
-52.2162
-52.2543
-52.2979
-52.3468
-52.4005
-52.4581
-52.5184
-52.5814
-52.6449
-52.7007
-52.1145
-52.1209
-52.1334
-52.1521
-52.1767
-52.207
-52.2428
-52.2839
-52.3302
-52.3814
-52.437
-52.497
-52.5652
-52.6551
-52.8439
-52.1067
-52.1127
-52.1245
-52.1421
-52.1653
-52.1938
-52.2276
-52.2664
-52.3101
-52.3588
-52.4121
-52.4699
-52.5339
-52.5963
-52.5714
-52.0946
-52.1002
-52.1114
-52.128
-52.1499
-52.1769
-52.2088
-52.2454
-52.2868
-52.3328
-52.3832
-52.4384
-52.5037
-52.5977
-52.8335
-52.0784
-52.0837
-52.0943
-52.1101
-52.1308
-52.1564
-52.1866
-52.2213
-52.2603
-52.3035
-52.3502
-52.3998
-52.4537
-52.5004
-52.4189
-52.0582
-52.0632
-52.0734
-52.0884
-52.1082
-52.1325
-52.1612
-52.1942
-52.2311
-52.2714
-52.3142
-52.3584
-52.4086
-52.4916
-52.7938
-52.0342
-52.0391
-52.0487
-52.0631
-52.0821
-52.1054
-52.1329
-52.1644
-52.1995
-52.2374
-52.2763
-52.3126
-52.3408
-52.3302
-52.0871
-52.0066
-52.0113
-52.0206
-52.0345
-52.0527
-52.0752
-52.1017
-52.1321
-52.1659
-52.2024
-52.2392
-52.2725
-52.2999
-52.33
-52.5091
-51.9755
-51.98
-51.9891
-52.0025
-52.0202
-52.042
-52.0678
-52.0975
-52.1307
-52.1668
-52.2036
-52.2366
-52.257
-52.2257
-51.9536
-51.9409
-51.9454
-51.9542
-51.9673
-51.9845
-52.0059
-52.0312
-52.0605
-52.0936
-52.1303
-52.1695
-52.2094
-52.2499
-52.2883
-52.3177
-51.9031
-51.9074
-51.916
-51.9288
-51.9458
-51.9668
-51.9918
-52.0208
-52.0541
-52.0918
-52.134
-52.1817
-52.2443
-52.3567
-52.7055
-51.8619
-51.8662
-51.8746
-51.8873
-51.904
-51.9247
-51.9494
-51.9783
-52.0116
-52.0499
-52.0935
-52.1436
-52.2042
-52.2604
-52.1343
-51.8175
-51.8217
-51.8301
-51.8426
-51.8591
-51.8796
-51.9041
-51.9327
-51.9658
-52.0038
-52.0473
-52.0983
-52.1672
-52.29
-52.6841
-51.7698
-51.774
-51.7824
-51.7948
-51.8112
-51.8315
-51.8558
-51.8841
-51.9167
-51.9536
-51.9948
-52.0404
-52.0927
-52.1309
-51.9331
-51.719
-51.7232
-51.7315
-51.7439
-51.7602
-51.7805
-51.8047
-51.8327
-51.8646
-51.9
-51.938
-51.9779
-52.0279
-52.1352
-52.6265
-51.6649
-51.6691
-51.6774
-51.6899
-51.7063
-51.7266
-51.7508
-51.7787
-51.8101
-51.8443
-51.8787
-51.9082
-51.9235
-51.8722
-51.4218
-51.6076
-51.6118
-51.6202
-51.6327
-51.6493
-51.6698
-51.6942
-51.7223
-51.754
-51.788
-51.8214
-51.8485
-51.8651
-51.8858
-52.1517
-51.5471
-51.5513
-51.5598
-51.5725
-51.5892
-51.61
-51.6348
-51.6636
-51.6962
-51.7317
-51.7672
-51.7961
-51.804
-51.7285
-51.2656
-51.4832
-51.4875
-51.4961
-51.509
-51.526
-51.5472
-51.5726
-51.6024
-51.6366
-51.675
-51.7163
-51.7582
-51.8006
-51.8397
-51.8671
-51.416
-51.4204
-51.4292
-51.4422
-51.4596
-51.4813
-51.5074
-51.5382
-51.5741
-51.6158
-51.6636
-51.72
-51.7997
-51.9583
-52.492
-51.3455
-51.3499
-51.3588
-51.3721
-51.3898
-51.412
-51.4387
-51.4704
-51.5078
-51.5518
-51.6035
-51.6655
-51.7438
-51.8158
-51.6052
-51.2714
-51.276
-51.2851
-51.2986
-51.3167
-51.3393
-51.3665
-51.3989
-51.4371
-51.482
-51.535
-51.5997
-51.6924
-51.8687
-52.4635
-51.1939
-51.1985
-51.2078
-51.2216
-51.24
-51.263
-51.2907
-51.3235
-51.3617
-51.4061
-51.4567
-51.5146
-51.583
-51.6304
-51.3174
-51.1127
-51.1175
-51.1269
-51.141
-51.1598
-51.1832
-51.2113
-51.2443
-51.2824
-51.3253
-51.3719
-51.4221
-51.4881
-51.6417
-52.3806
-51.0279
-51.0328
-51.0424
-51.0568
-51.0759
-51.0998
-51.1284
-51.1618
-51.1998
-51.2414
-51.2833
-51.3185
-51.3324
-51.246
-50.5552
-50.9394
-50.9443
-50.9542
-50.9689
-50.9884
-51.0128
-51.0421
-51.0762
-51.1149
-51.1568
-51.1976
-51.2297
-51.2462
-51.2692
-51.6615
-50.8471
-50.8521
-50.8621
-50.8771
-50.8971
-50.9222
-50.9523
-50.9876
-51.028
-51.0723
-51.1166
-51.1516
-51.1556
-51.0353
-50.3359
-50.7508
-50.756
-50.7662
-50.7815
-50.802
-50.8277
-50.8588
-50.8956
-50.9385
-50.9872
-51.0404
-51.0952
-51.1512
-51.2028
-51.239
-50.6507
-50.6559
-50.6663
-50.6819
-50.7029
-50.7292
-50.7613
-50.7996
-50.845
-50.8985
-50.9614
-51.0379
-51.1497
-51.3804
-52.1724
-50.5464
-50.5517
-50.5623
-50.5782
-50.5995
-50.6264
-50.6593
-50.6988
-50.746
-50.8028
-50.8713
-50.956
-51.0658
-51.1673
-50.8504
-50.4381
-50.4435
-50.4542
-50.4703
-50.4919
-50.5192
-50.5526
-50.5926
-50.6407
-50.6984
-50.7683
-50.8568
-50.9876
-51.2439
-52.1242
-50.3257
-50.3311
-50.3419
-50.3582
-50.38
-50.4075
-50.441
-50.4811
-50.5287
-50.5849
-50.6507
-50.7282
-50.8223
-50.8864
-50.4173
-50.2091
-50.2145
-50.2254
-50.2418
-50.2637
-50.2913
-50.3248
-50.3646
-50.411
-50.4642
-50.5231
-50.5882
-50.6777
-50.8983
-51.9875
-50.0882
-50.0937
-50.1046
-50.121
-50.143
-50.1706
-50.2041
-50.2435
-50.2889
-50.3389
-50.3895
-50.4312
-50.4422
-50.3062
-49.2784
-49.9632
-49.9686
-49.9795
-49.9959
-50.0179
-50.0456
-50.0791
-50.1185
-50.1636
-50.2126
-50.2602
-50.2955
-50.3087
-50.3327
-50.9022
-49.8339
-49.8393
-49.8502
-49.8665
-49.8885
-49.9162
-49.9499
-49.9898
-50.0359
-50.0868
-50.1375
-50.1753
-50.1678
-49.9794
-48.9436
-49.7004
-49.7057
-49.7165
-49.7328
-49.7546
-49.7823
-49.8162
-49.8569
-49.9049
-49.9605
-50.0221
-50.0864
-50.1526
-50.2135
-50.2551
-49.5627
-49.568
-49.5786
-49.5946
-49.6162
-49.6437
-49.6777
-49.719
-49.7689
-49.8294
-49.9028
-49.9962
-50.1411
-50.4603
-51.6013
-49.4208
-49.426
-49.4364
-49.4521
-49.4733
-49.5004
-49.534
-49.5752
-49.6259
-49.6887
-49.7677
-49.8702
-50.0086
-50.1354
-49.657
-49.275
-49.28
-49.2901
-49.3053
-49.3259
-49.3522
-49.3848
-49.425
-49.4745
-49.5362
-49.6144
-49.7192
-49.8843
-50.23
-51.475
-49.1251
-49.13
-49.1396
-49.1543
-49.174
-49.1992
-49.2304
-49.2685
-49.3149
-49.3716
-49.4407
-49.5263
-49.6346
-49.6991
-48.9993
-48.9715
-48.9761
-48.9853
-48.9992
-49.0179
-49.0417
-49.071
-49.1064
-49.1485
-49.1977
-49.2536
-49.3176
-49.4154
-49.6979
-51.208
-48.8142
-48.8185
-48.8271
-48.8402
-48.8578
-48.88
-48.9072
-48.9397
-48.9773
-49.0187
-49.0587
-49.0855
-49.068
-48.8435
-47.3653
-48.6534
-48.6574
-48.6655
-48.6776
-48.6939
-48.7146
-48.7397
-48.7696
-48.8037
-48.8398
-48.8712
-48.884
-48.8644
-48.8586
-49.6083
-48.4893
-48.493
-48.5004
-48.5116
-48.5266
-48.5456
-48.5689
-48.5967
-48.6288
-48.6636
-48.6946
-48.7051
-48.6511
-48.3483
-46.888
-48.3222
-48.3255
-48.3322
-48.3424
-48.356
-48.3733
-48.3948
-48.4209
-48.4524
-48.4894
-48.5302
-48.571
-48.6106
-48.6408
-48.6499
-48.1522
-48.1552
-48.1612
-48.1702
-48.1823
-48.1978
-48.2173
-48.2416
-48.2723
-48.3118
-48.3636
-48.4378
-48.5766
-48.9471
-50.4245
-47.9797
-47.9823
-47.9875
-47.9953
-48.0058
-48.0193
-48.0363
-48.0579
-48.0864
-48.1251
-48.1795
-48.2596
-48.3818
-48.4837
-47.7829
-47.8049
-47.8071
-47.8115
-47.8181
-47.8268
-47.8379
-47.8519
-47.8697
-47.8936
-47.9269
-47.9753
-48.0524
-48.2011
-48.5767
-50.1093
-47.628
-47.6299
-47.6335
-47.6388
-47.6456
-47.6542
-47.6646
-47.6776
-47.6945
-47.7173
-47.7492
-47.7954
-47.8629
-47.8652
-46.8835
-47.4494
-47.4509
-47.4537
-47.4578
-47.4629
-47.4688
-47.4754
-47.4829
-47.4914
-47.501
-47.5109
-47.5236
-47.5701
-47.8359
-49.6055
-47.2693
-47.2704
-47.2726
-47.2756
-47.279
-47.2825
-47.2856
-47.2877
-47.2878
-47.2836
-47.2686
-47.2282
-47.1252
-46.7614
-44.8645
-47.0878
-47.0887
-47.0904
-47.0925
-47.0946
-47.0961
-47.0962
-47.094
-47.0875
-47.0731
-47.0417
-46.9765
-46.8612
-46.7504
-47.5111
-46.9052
-46.906
-46.9074
-46.9089
-46.9101
-46.9103
-46.9084
-46.9033
-46.893
-46.8737
-46.836
-46.7597
-46.5942
-46.1333
-44.3541
-46.7216
-46.7223
-46.7236
-46.725
-46.7259
-46.7255
-46.7228
-46.7165
-46.7051
-46.6862
-46.655
-46.6048
-46.5323
-46.4308
-46.3062
-46.5369
-46.5378
-46.5393
-46.5409
-46.5421
-46.542
-46.5394
-46.5333
-46.5227
-46.5066
-46.4851
-46.4653
-46.4905
-46.7433
-48.1784
-46.3511
-46.3522
-46.3542
-46.3567
-46.3588
-46.3597
-46.3584
-46.3535
-46.3442
-46.3301
-46.3118
-46.2947
-46.2908
-46.2337
-45.322
-46.1641
-46.1656
-46.1684
-46.172
-46.1758
-46.1787
-46.1796
-46.177
-46.1694
-46.1557
-46.1355
-46.1149
-46.128
-46.3166
-47.5709
-45.9754
-45.9775
-45.9814
-45.9867
-45.9928
-45.9988
-46.0031
-46.004
-45.9991
-45.985
-45.9573
-45.9116
-45.8433
-45.6585
-44.5091
-45.7849
-45.7876
-45.7929
-45.8003
-45.8095
-45.8195
-45.8289
-45.8354
-45.8354
-45.8231
-45.7893
-45.7242
-45.6396
-45.6692
-46.8439
-45.592
-45.5954
-45.6022
-45.6122
-45.6252
-45.6403
-45.6566
-45.6714
-45.6805
-45.6755
-45.6409
-45.5504
-45.3565
-44.8837
-43.1367
-45.3962
-45.4004
-45.4088
-45.4216
-45.4387
-45.4601
-45.485
-45.5116
-45.5356
-45.5477
-45.5292
-45.4484
-45.2671
-44.9819
-45.0872
-45.197
-45.2019
-45.2118
-45.2273
-45.2488
-45.277
-45.3122
-45.3539
-45.3992
-45.4404
-45.4584
-45.4164
-45.2499
-44.808
-43.5601
-44.9939
-44.9993
-45.0105
-45.0283
-45.0538
-45.0887
-45.1347
-45.1937
-45.2661
-45.3484
-45.4271
-45.4708
-45.4238
-45.1929
-44.7301
-44.7865
-44.7922
-44.8041
-44.8234
-44.8519
-44.8922
-44.9482
-45.0244
-45.1263
-45.2582
-45.4179
-45.5883
-45.7256
-45.7379
-45.5853
-44.5747
-44.5803
-44.5921
-44.6116
-44.6412
-44.6846
-44.7474
-44.8374
-44.966
-45.1479
-45.3989
-45.7288
-46.1141
-46.3964
-46.1742
-44.3585
-44.3635
-44.3742
-44.3922
-44.4204
-44.4632
-44.5275
-44.6239
-44.769
-44.9887
-45.323
-45.831
-46.5741
-47.4044
-46.782
-44.1385
-44.1422
-44.1506
-44.1652
-44.189
-44.2265
-44.2852
-44.3767
-44.5203
-44.7493
-45.1243
-45.77
-46.9737
-49.4201
-54.7523
-43.9153
-43.9173
-43.9222
-43.9314
-43.9475
-43.9748
-44.0199
-44.0934
-44.2126
-44.4078
-44.7354
-45.3216
-46.5105
-49.4307
-58.6435
-60.1523
-50.7463
-47.7366
-46.4986
-45.8789
-45.5263
-45.311
-45.1751
-45.088
-45.0318
-44.9956
-44.9726
-44.9584
-44.9503
-44.9466
-56.5498
-50.76
-48.1857
-46.9251
-46.2433
-45.8421
-45.5926
-45.4323
-45.3274
-45.258
-45.2119
-45.1817
-45.1623
-45.1509
-45.1456
-47.589
-48.5395
-47.7227
-46.9496
-46.4109
-46.0519
-45.8123
-45.6512
-45.542
-45.4676
-45.4168
-45.3826
-45.3602
-45.3467
-45.3404
-47.3591
-47.5454
-47.2299
-46.8112
-46.4521
-46.1778
-45.9775
-45.8342
-45.7324
-45.6604
-45.6098
-45.5748
-45.5514
-45.5371
-45.5303
-47.0058
-46.8987
-46.809
-46.6314
-46.4324
-46.2516
-46.1034
-45.9885
-45.902
-45.8381
-45.7916
-45.7584
-45.7358
-45.7218
-45.715
-45.6233
-46.2389
-46.4495
-46.4662
-46.3983
-46.3019
-46.2061
-46.1232
-46.0559
-46.0034
-45.9635
-45.9343
-45.9138
-45.9009
-45.8946
-44.9291
-45.8595
-46.2251
-46.3596
-46.3821
-46.351
-46.3001
-46.2471
-46.1994
-46.1595
-46.1277
-46.1035
-46.086
-46.0748
-46.0693
-45.7596
-45.8711
-46.1614
-46.3306
-46.4012
-46.4129
-46.3957
-46.3675
-46.3374
-46.3097
-46.2862
-46.2674
-46.2535
-46.2443
-46.2397
-44.3543
-45.7576
-46.1822
-46.3698
-46.4595
-46.4942
-46.4989