/*--------------------------------*- C++ -*----------------------------------*\
| =========                 |                                                 |
| \\      /  F ield         | OpenFOAM: The Open Source CFD Toolbox           |
|  \\    /   O peration     | Version:  5.x                                   |
|   \\  /    A nd           | Web:      www.OpenFOAM.org                      |
|    \\/     M anipulation  |                                                 |
\*---------------------------------------------------------------------------*/
FoamFile
{
    version     2.0;
    format      ascii;
    class       volScalarField;
    location    "3.1";
    object      T;
}
// * * * * * * * * * * * * * * * * * * * * * * * * * * * * * * * * * * * * * //

dimensions      [0 0 0 1 0 0 0];

internalField   nonuniform List<scalar> 
6300
(
322.76
322.279
321.799
321.32
320.841
320.364
319.888
319.413
318.94
318.469
318.001
317.535
317.072
316.611
316.154
322.76
322.279
321.799
321.319
320.84
320.362
319.886
319.411
318.938
318.467
317.998
317.532
317.069
316.608
316.151
322.759
322.278
321.798
321.317
320.838
320.36
319.883
319.407
318.934
318.462
317.993
317.527
317.063
316.602
316.144
322.759
322.277
321.796
321.315
320.835
320.356
319.878
319.402
318.928
318.456
317.986
317.519
317.054
316.593
316.135
322.759
322.276
321.793
321.311
320.83
320.35
319.872
319.395
318.919
318.446
317.976
317.508
317.042
316.581
316.122
322.758
322.274
321.79
321.307
320.825
320.344
319.864
319.386
318.909
318.435
317.963
317.494
317.028
316.565
316.106
322.757
322.272
321.787
321.302
320.819
320.336
319.854
319.374
318.896
318.42
317.947
317.477
317.009
316.546
316.086
322.756
322.27
321.783
321.297
320.811
320.327
319.843
319.362
318.882
318.404
317.929
317.456
316.988
316.523
316.062
322.756
322.267
321.778
321.29
320.803
320.316
319.831
319.347
318.865
318.384
317.907
317.433
316.962
316.496
316.035
322.755
322.264
321.773
321.283
320.794
320.305
319.817
319.33
318.845
318.362
317.882
317.405
316.932
316.465
316.003
322.754
322.261
321.768
321.276
320.784
320.292
319.802
319.312
318.824
318.338
317.854
317.373
316.897
316.427
315.965
322.752
322.257
321.763
321.268
320.773
320.279
319.786
319.293
318.801
318.311
317.822
317.337
316.857
316.383
315.919
322.751
322.254
321.757
321.26
320.762
320.266
319.769
319.273
318.777
318.282
317.788
317.296
316.809
316.329
315.861
322.75
322.251
321.751
321.251
320.751
320.252
319.752
319.252
318.751
318.251
317.751
317.251
316.754
316.262
315.785
322.749
322.247
321.745
321.243
320.74
320.238
319.735
319.231
318.726
318.221
317.714
317.204
316.693
316.18
315.674
315.738
315.362
314.988
314.617
314.248
313.882
313.519
313.158
312.801
312.447
312.096
311.748
311.404
311.064
310.728
310.395
310.067
309.742
309.421
309.105
308.792
308.483
308.178
307.876
307.579
307.284
306.993
306.704
306.419
306.136
305.856
305.578
305.302
305.028
304.756
304.486
304.217
303.95
303.683
303.418
303.154
302.89
302.628
302.366
302.105
301.844
301.584
301.324
301.064
300.805
300.546
300.286
300.027
299.767
299.507
299.246
298.985
298.723
298.46
298.196
297.93
297.664
297.395
297.126
296.855
296.582
296.307
296.031
295.752
295.472
295.19
294.905
294.619
294.33
294.04
293.747
293.451
293.154
292.854
292.551
292.247
291.939
291.63
291.318
291.003
290.686
290.366
290.043
289.718
289.391
315.734
315.358
314.984
314.613
314.244
313.878
313.514
313.154
312.796
312.442
312.091
311.743
311.399
311.059
310.722
310.389
310.061
309.736
309.416
309.099
308.786
308.478
308.173
307.871
307.574
307.279
306.988
306.7
306.415
306.133
305.853
305.575
305.299
305.026
304.754
304.484
304.215
303.948
303.682
303.416
303.152
302.889
302.627
302.365
302.104
301.843
301.583
301.323
301.064
300.805
300.545
300.286
300.027
299.768
299.508
299.247
298.986
298.724
298.461
298.197
297.932
297.665
297.398
297.128
296.857
296.584
296.31
296.033
295.755
295.475
295.193
294.908
294.622
294.333
294.043
293.75
293.454
293.157
292.857
292.555
292.25
291.943
291.633
291.321
291.006
290.689
290.369
290.047
289.722
289.394
315.728
315.351
314.977
314.606
314.236
313.87
313.506
313.145
312.787
312.432
312.081
311.733
311.388
311.048
310.711
310.378
310.049
309.725
309.404
309.088
308.775
308.467
308.162
307.861
307.564
307.27
306.979
306.692
306.407
306.125
305.846
305.569
305.294
305.021
304.749
304.479
304.211
303.944
303.678
303.413
303.15
302.887
302.624
302.363
302.102
301.841
301.582
301.322
301.063
300.804
300.545
300.287
300.028
299.769
299.509
299.249
298.988
298.727
298.464
298.2
297.936
297.669
297.402
297.132
296.862
296.589
296.315
296.038
295.76
295.48
295.198
294.914
294.628
294.339
294.049
293.756
293.461
293.163
292.864
292.562
292.257
291.95
291.64
291.328
291.014
290.696
290.377
290.054
289.729
289.401
315.718
315.341
314.967
314.595
314.225
313.858
313.494
313.132
312.773
312.418
312.066
311.717
311.372
311.031
310.694
310.361
310.032
309.707
309.387
309.07
308.758
308.45
308.146
307.846
307.549
307.256
306.966
306.679
306.395
306.114
305.836
305.559
305.285
305.013
304.742
304.473
304.205
303.939
303.673
303.409
303.145
302.883
302.621
302.36
302.099
301.839
301.58
301.32
301.062
300.803
300.545
300.287
300.028
299.77
299.511
299.251
298.991
298.73
298.468
298.205
297.941
297.675
297.408
297.139
296.868
296.596
296.322
296.046
295.768
295.489
295.207
294.923
294.637
294.349
294.058
293.765
293.471
293.173
292.874
292.572
292.267
291.96
291.651
291.339
291.024
290.707
290.388
290.065
289.74
289.412
315.704
315.327
314.952
314.58
314.21
313.842
313.477
313.115
312.755
312.399
312.046
311.696
311.35
311.009
310.671
310.338
310.008
309.684
309.363
309.047
308.735
308.428
308.124
307.825
307.529
307.237
306.948
306.662
306.38
306.1
305.822
305.547
305.274
305.002
304.732
304.464
304.197
303.931
303.667
303.403
303.14
302.878
302.617
302.356
302.096
301.836
301.577
301.318
301.06
300.802
300.544
300.287
300.029
299.772
299.514
299.255
298.996
298.735
298.474
298.212
297.948
297.683
297.416
297.148
296.878
296.606
296.332
296.057
295.779
295.5
295.218
294.934
294.649
294.361
294.07
293.778
293.483
293.186
292.887
292.585
292.281
291.974
291.665
291.353
291.039
290.722
290.402
290.08
289.755
289.427
315.688
315.31
314.935
314.562
314.191
313.823
313.457
313.093
312.732
312.375
312.02
311.669
311.323
310.98
310.642
310.308
309.979
309.654
309.333
309.018
308.706
308.399
308.097
307.798
307.504
307.213
306.925
306.641
306.36
306.081
305.805
305.532
305.26
304.989
304.721
304.453
304.187
303.923
303.659
303.396
303.134
302.872
302.611
302.351
302.091
301.832
301.573
301.315
301.057
300.8
300.543
300.287
300.03
299.774
299.517
299.259
299.001
298.742
298.482
298.22
297.957
297.693
297.426
297.159
296.889
296.618
296.345
296.07
295.793
295.514
295.232
294.949
294.663
294.376
294.086
293.794
293.499
293.203
292.904
292.602
292.298
291.991
291.683
291.371
291.057
290.74
290.421
290.098
289.773
289.445
315.667
315.29
314.914
314.541
314.17
313.8
313.433
313.068
312.705
312.346
311.99
311.637
311.289
310.946
310.606
310.272
309.942
309.617
309.297
308.982
308.671
308.365
308.063
307.766
307.473
307.184
306.898
306.616
306.336
306.06
305.785
305.513
305.243
304.974
304.707
304.441
304.176
303.912
303.649
303.387
303.126
302.865
302.605
302.345
302.086
301.827
301.569
301.311
301.054
300.798
300.542
300.287
300.032
299.776
299.521
299.264
299.007
298.75
298.491
298.23
297.968
297.705
297.439
297.172
296.903
296.633
296.36
296.086
295.809
295.53
295.249
294.966
294.681
294.394
294.104
293.813
293.519
293.222
292.924
292.622
292.319
292.012
291.704
291.393
291.079
290.762
290.443
290.121
289.796
289.467
315.644
315.266
314.89
314.517
314.145
313.775
313.406
313.039
312.674
312.312
311.953
311.599
311.249
310.904
310.564
310.229
309.899
309.574
309.254
308.939
308.629
308.324
308.024
307.728
307.437
307.15
306.866
306.586
306.309
306.034
305.762
305.492
305.224
304.957
304.691
304.427
304.163
303.9
303.639
303.378
303.117
302.858
302.598
302.338
302.079
301.821
301.563
301.306
301.05
300.795
300.54
300.286
300.033
299.779
299.525
299.27
299.015
298.759
298.501
298.242
297.982
297.719
297.454
297.188
296.92
296.65
296.378
296.104
295.828
295.55
295.27
294.987
294.702
294.415
294.126
293.835
293.541
293.245
292.947
292.646
292.342
292.037
291.728
291.418
291.104
290.789
290.47
290.148
289.823
289.494
315.616
315.239
314.863
314.49
314.118
313.747
313.376
313.007
312.638
312.273
311.911
311.554
311.202
310.856
310.515
310.18
309.849
309.524
309.204
308.889
308.579
308.275
307.977
307.684
307.395
307.11
306.829
306.552
306.277
306.005
305.736
305.469
305.203
304.938
304.674
304.411
304.148
303.887
303.627
303.367
303.108
302.849
302.59
302.331
302.072
301.814
301.556
301.299
301.044
300.79
300.538
300.286
300.034
299.782
299.53
299.277
299.024
298.77
298.514
298.257
297.997
297.736
297.472
297.206
296.939
296.67
296.399
296.126
295.851
295.573
295.293
295.01
294.725
294.439
294.15
293.86
293.567
293.272
292.974
292.673
292.37
292.064
291.756
291.446
291.134
290.819
290.501
290.18
289.855
289.526
315.584
315.208
314.834
314.462
314.09
313.718
313.345
312.972
312.599
312.229
311.862
311.501
311.147
310.799
310.458
310.123
309.792
309.466
309.146
308.831
308.522
308.219
307.923
307.633
307.347
307.066
306.788
306.513
306.241
305.973
305.707
305.443
305.18
304.918
304.655
304.393
304.132
303.872
303.614
303.356
303.099
302.841
302.583
302.324
302.064
301.805
301.547
301.291
301.036
300.784
300.534
300.284
300.035
299.785
299.536
299.285
299.035
298.783
298.53
298.275
298.016
297.755
297.492
297.227
296.96
296.692
296.422
296.151
295.877
295.6
295.32
295.037
294.752
294.465
294.177
293.888
293.597
293.303
293.005
292.704
292.401
292.094
291.787
291.478
291.167
290.854
290.537
290.217
289.893
289.564
315.547
315.173
314.802
314.433
314.063
313.691
313.315
312.936
312.557
312.179
311.805
311.439
311.082
310.733
310.393
310.058
309.728
309.401
309.079
308.763
308.455
308.154
307.861
307.575
307.294
307.016
306.741
306.469
306.201
305.937
305.675
305.416
305.157
304.897
304.636
304.375
304.114
303.856
303.599
303.344
303.09
302.834
302.577
302.317
302.056
301.795
301.535
301.279
301.025
300.776
300.529
300.283
300.036
299.789
299.541
299.294
299.046
298.798
298.549
298.296
298.039
297.779
297.515
297.249
296.983
296.716
296.449
296.179
295.907
295.631
295.35
295.066
294.78
294.493
294.206
293.919
293.63
293.338
293.041
292.739
292.435
292.127
291.819
291.511
291.203
290.893
290.579
290.261
289.937
289.608
315.504
315.133
314.767
314.404
314.04
313.668
313.289
312.902
312.512
312.122
311.738
311.365
311.004
310.656
310.319
309.988
309.658
309.33
309.005
308.686
308.376
308.077
307.789
307.509
307.235
306.962
306.69
306.421
306.155
305.896
305.641
305.389
305.134
304.877
304.617
304.356
304.094
303.836
303.582
303.332
303.082
302.83
302.573
302.312
302.048
301.782
301.519
301.261
301.009
300.763
300.522
300.281
300.039
299.794
299.547
299.302
299.058
298.816
298.572
298.323
298.068
297.807
297.541
297.273
297.005
296.74
296.477
296.213
295.943
295.667
295.385
295.098
294.809
294.521
294.236
293.953
293.669
293.379
293.083
292.78
292.472
292.161
291.852
291.545
291.242
290.937
290.627
290.311
289.989
289.66
315.45
315.088
314.728
314.379
314.026
313.656
313.274
312.874
312.468
312.055
311.657
311.271
310.909
310.563
310.236
309.915
309.586
309.255
308.92
308.596
308.282
307.986
307.704
307.437
307.174
306.906
306.637
306.365
306.102
305.847
305.604
305.363
305.116
304.863
304.6
304.336
304.068
303.81
303.559
303.318
303.079
302.832
302.577
302.311
302.041
301.765
301.497
301.235
300.985
300.744
300.513
300.283
300.044
299.801
299.551
299.307
299.067
298.835
298.602
298.358
298.105
297.84
297.57
297.294
297.025
296.762
296.508
296.253
295.988
295.714
295.427
295.134
294.836
294.545
294.262
293.988
293.715
293.429
293.135
292.827
292.513
292.192
291.88
291.575
291.282
290.989
290.684
290.372
290.048
289.722
315.38
315.037
314.676
314.358
314.036
313.662
313.283
312.854
312.433
311.969
311.556
311.145
310.789
310.442
310.145
309.853
309.519
309.186
308.819
308.49
308.161
307.875
307.596
307.357
307.121
306.853
306.587
306.296
306.037
305.782
305.563
305.349
305.104
304.86
304.587
304.321
304.03
303.773
303.52
303.303
303.088
302.843
302.596
302.317
302.042
301.738
301.465
301.19
300.949
300.71
300.504
300.296
300.056
299.816
299.548
299.306
299.066
298.857
298.647
298.405
298.16
297.882
297.608
297.306
297.036
296.769
296.539
296.309
296.045
295.778
295.476
295.178
294.851
294.56
294.272
294.024
293.777
293.493
293.207
292.882
292.563
292.211
291.898
291.588
291.321
291.056
290.752
290.449
290.112
289.797
315.273
315.014
314.561
314.342
314.124
313.673
313.366
312.823
312.459
311.809
311.454
310.94
310.655
310.248
310.049
309.852
309.447
309.168
308.663
308.384
307.98
307.754
307.431
307.273
307.116
306.796
306.575
306.18
305.965
305.663
305.518
305.376
305.093
304.9
304.565
304.34
303.944
303.729
303.429
303.284
303.142
302.857
302.661
302.317
302.084
301.666
301.435
301.098
300.907
300.631
300.495
300.356
300.07
299.87
299.506
299.305
299.018
298.878
298.739
298.457
298.262
297.918
297.685
297.27
297.044
296.724
296.568
296.416
296.106
295.893
295.518
295.265
294.815
294.571
294.225
294.057
293.893
293.561
293.332
292.93
292.659
292.175
291.912
291.539
291.358
291.181
290.82
290.574
290.142
289.901
289.028
288.628
288.226
287.82
287.411
286.999
286.585
286.168
285.75
285.329
284.908
284.485
284.061
283.637
283.212
289.031
288.632
288.229
287.823
287.413
287.001
286.587
286.17
285.751
285.331
284.909
284.486
284.062
283.637
283.213
289.038
288.638
288.235
287.828
287.419
287.006
286.591
286.174
285.755
285.334
284.911
284.488
284.063
283.638
283.213
289.049
288.648
288.244
287.837
287.427
287.014
286.598
286.18
285.76
285.338
284.915
284.49
284.065
283.639
283.213
289.063
288.662
288.257
287.849
287.438
287.024
286.607
286.188
285.766
285.344
284.919
284.494
284.068
283.641
283.214
289.081
288.679
288.273
287.864
287.452
287.036
286.618
286.197
285.775
285.35
284.925
284.498
284.071
283.643
283.214
289.102
288.7
288.293
287.883
287.468
287.051
286.631
286.209
285.785
285.359
284.932
284.503
284.074
283.645
283.215
289.129
288.725
288.317
287.904
287.488
287.069
286.647
286.222
285.796
285.368
284.939
284.509
284.079
283.647
283.216
289.16
288.755
288.345
287.93
287.511
287.089
286.665
286.238
285.809
285.379
284.948
284.516
284.083
283.65
283.217
289.197
288.79
288.377
287.959
287.537
287.112
286.685
286.255
285.824
285.391
284.958
284.523
284.088
283.653
283.218
289.24
288.831
288.414
287.993
287.567
287.138
286.706
286.273
285.839
285.404
284.968
284.531
284.094
283.657
283.219
289.291
288.878
288.457
288.03
287.599
287.165
286.73
286.293
285.856
285.418
284.979
284.539
284.1
283.66
283.22
289.353
288.934
288.506
288.071
287.634
287.195
286.755
286.314
285.873
285.432
284.99
284.548
284.106
283.664
283.221
289.43
289.001
288.56
288.116
287.67
287.225
286.78
286.335
285.891
285.446
285.001
284.557
284.112
283.667
283.222
289.535
289.078
288.618
288.161
287.707
287.255
286.805
286.356
285.908
285.46
285.013
284.565
284.118
283.671
283.224
322.748
322.244
321.74
321.235
320.731
320.225
319.719
319.212
318.704
318.194
317.681
317.164
316.639
316.097
315.511
322.747
322.241
321.735
321.229
320.722
320.215
319.706
319.197
318.686
318.172
317.655
317.132
316.601
316.052
315.469
322.746
322.239
321.731
321.223
320.714
320.205
319.694
319.182
318.668
318.152
317.632
317.107
316.575
316.031
315.477
322.745
322.236
321.727
321.217
320.706
320.195
319.683
319.169
318.653
318.135
317.613
317.087
316.556
316.018
315.476
322.745
322.234
321.723
321.211
320.699
320.186
319.672
319.157
318.64
318.12
317.597
317.071
316.541
316.007
315.471
322.744
322.232
321.719
321.206
320.693
320.179
319.663
319.146
318.628
318.107
317.584
317.058
316.529
315.999
315.467
322.743
322.23
321.716
321.202
320.687
320.172
319.655
319.137
318.617
318.096
317.572
317.047
316.519
315.99
315.462
322.743
322.228
321.713
321.198
320.682
320.165
319.647
319.129
318.608
318.086
317.562
317.037
316.51
315.981
315.452
322.742
322.226
321.711
321.194
320.677
320.16
319.641
319.121
318.6
318.078
317.554
317.028
316.501
315.973
315.445
322.742
322.225
321.708
321.191
320.673
320.155
319.635
319.115
318.593
318.07
317.546
317.02
316.493
315.964
315.433
322.741
322.224
321.706
321.188
320.669
320.15
319.63
319.109
318.587
318.064
317.539
317.013
316.486
315.957
315.428
322.741
322.223
321.704
321.186
320.666
320.146
319.626
319.104
318.582
318.058
317.534
317.008
316.48
315.951
315.42
322.741
322.222
321.703
321.183
320.664
320.143
319.622
319.1
318.577
318.054
317.529
317.003
316.475
315.947
315.417
322.74
322.221
321.701
321.181
320.661
320.14
319.619
319.097
318.574
318.05
317.525
316.999
316.471
315.943
315.413
322.74
322.22
321.7
321.18
320.659
320.138
319.616
319.094
318.571
318.047
317.521
316.995
316.468
315.94
315.411
322.74
322.22
321.699
321.179
320.658
320.136
319.614
319.091
318.568
318.044
317.519
316.993
316.466
315.939
315.41
322.74
322.219
321.698
321.178
320.656
320.135
319.612
319.09
318.566
318.042
317.517
316.991
316.465
315.937
315.409
322.74
322.219
321.698
321.177
320.655
320.133
319.611
319.088
318.565
318.041
317.516
316.99
316.464
315.937
315.409
322.74
322.219
321.697
321.176
320.655
320.133
319.61
319.087
318.564
318.04
317.515
316.99
316.463
315.937
315.409
322.739
322.218
321.697
321.176
320.654
320.132
319.61
319.087
318.563
318.039
317.515
316.989
316.464
315.937
315.41
322.739
322.218
321.697
321.175
320.654
320.132
319.609
319.087
318.563
318.039
317.515
316.99
316.464
315.938
315.411
322.739
322.218
321.697
321.175
320.654
320.132
319.609
319.087
318.563
318.04
317.515
316.991
316.465
315.939
315.412
322.739
322.218
321.697
321.176
320.654
320.132
319.61
319.087
318.564
318.041
317.517
316.992
316.467
315.941
315.413
322.739
322.218
321.697
321.176
320.654
320.133
319.611
319.088
318.565
318.042
317.518
316.994
316.469
315.943
315.417
322.74
322.219
321.698
321.176
320.655
320.133
319.611
319.089
318.567
318.043
317.52
316.996
316.471
315.946
315.419
322.74
322.219
321.698
321.177
320.656
320.134
319.613
319.091
318.568
318.045
317.522
316.998
316.474
315.949
315.424
322.74
322.219
321.698
321.178
320.657
320.135
319.614
319.092
318.57
318.048
317.525
317.001
316.478
315.953
315.428
322.74
322.219
321.699
321.179
320.658
320.137
319.616
319.094
318.572
318.05
317.528
317.005
316.481
315.958
315.435
322.74
322.22
321.7
321.179
320.659
320.138
319.618
319.096
318.575
318.053
317.531
317.008
316.485
315.962
315.439
322.74
322.22
321.701
321.181
320.66
320.14
319.62
319.099
318.578
318.056
317.534
317.012
316.49
315.967
315.445
322.74
322.221
321.701
321.182
320.662
320.142
319.622
319.101
318.581
318.06
317.538
317.016
316.494
315.971
315.448
322.74
322.221
321.702
321.183
320.664
320.144
319.624
319.104
318.584
318.063
317.542
317.021
316.499
315.976
315.451
322.741
322.222
321.703
321.185
320.666
320.146
319.627
319.108
318.588
318.067
317.547
317.025
316.504
315.981
315.458
322.741
322.223
321.704
321.186
320.668
320.149
319.63
319.111
318.591
318.072
317.551
317.031
316.509
315.987
315.464
322.741
322.223
321.706
321.188
320.67
320.152
319.633
319.114
318.595
318.076
317.556
317.036
316.516
315.994
315.473
322.741
322.224
321.707
321.19
320.672
320.154
319.636
319.118
318.6
318.081
317.562
317.042
316.522
316.002
315.48
322.742
322.225
321.708
321.191
320.675
320.157
319.64
319.122
318.604
318.086
317.568
317.049
316.529
316.01
315.492
322.742
322.226
321.71
321.193
320.677
320.16
319.644
319.127
318.609
318.092
317.573
317.055
316.537
316.018
315.499
322.742
322.227
321.711
321.196
320.68
320.164
319.648
319.131
318.614
318.097
317.58
317.062
316.544
316.026
315.509
322.743
322.228
321.713
321.198
320.683
320.167
319.652
319.136
318.62
318.103
317.586
317.069
316.551
316.033
315.514
322.743
322.229
321.715
321.2
320.686
320.171
319.656
319.141
318.625
318.109
317.593
317.076
316.559
316.04
315.519
322.743
322.23
321.716
321.203
320.689
320.175
319.661
319.146
318.631
318.116
317.6
317.084
316.567
316.049
315.531
322.744
322.231
321.718
321.205
320.692
320.179
319.665
319.152
318.637
318.123
317.608
317.092
316.576
316.058
315.538
322.744
322.232
321.72
321.208
320.696
320.183
319.67
319.157
318.644
318.13
317.616
317.101
316.585
316.069
315.553
322.744
322.233
321.722
321.211
320.699
320.188
319.676
319.163
318.651
318.138
317.624
317.11
316.596
316.08
315.563
322.745
322.235
321.724
321.214
320.703
320.192
319.681
319.17
318.658
318.146
317.633
317.12
316.607
316.093
315.582
322.745
322.236
321.726
321.217
320.707
320.197
319.687
319.176
318.665
318.154
317.642
317.13
316.618
316.105
315.592
322.746
322.237
321.729
321.22
320.711
320.202
319.693
319.183
318.673
318.162
317.652
317.14
316.629
316.117
315.608
322.746
322.239
321.731
321.223
320.716
320.207
319.699
319.19
318.681
318.171
317.661
317.151
316.639
316.128
315.615
322.747
322.24
321.734
321.227
320.72
320.213
319.705
319.198
318.689
318.181
317.671
317.161
316.651
316.139
315.623
322.747
322.242
321.736
321.231
320.725
320.219
319.712
319.205
318.698
318.19
317.682
317.173
316.663
316.152
315.64
322.748
322.243
321.739
321.234
320.73
320.224
319.719
319.213
318.707
318.201
317.693
317.185
316.676
316.166
315.651
322.748
322.245
321.742
321.238
320.735
320.231
319.726
319.222
318.717
318.211
317.705
317.198
316.691
316.182
315.673
322.749
322.247
321.745
321.242
320.74
320.237
319.734
319.231
318.727
318.222
317.717
317.212
316.706
316.198
315.688
322.75
322.249
321.748
321.247
320.745
320.244
319.742
319.24
318.737
318.234
317.73
317.226
316.722
316.217
315.715
322.75
322.251
321.751
321.251
320.751
320.251
319.75
319.249
318.748
318.246
317.743
317.241
316.737
316.234
315.731
322.751
322.252
321.754
321.255
320.757
320.258
319.758
319.259
318.759
318.258
317.757
317.255
316.753
316.252
315.754
322.752
322.254
321.757
321.26
320.763
320.265
319.767
319.269
318.77
318.271
317.771
317.27
316.769
316.267
315.765
322.752
322.257
321.761
321.265
320.769
320.273
319.776
319.279
318.782
318.284
317.785
317.286
316.785
316.283
315.776
322.753
322.259
321.764
321.27
320.775
320.28
319.785
319.29
318.794
318.297
317.8
317.302
316.803
316.302
315.8
322.754
322.261
321.768
321.275
320.782
320.289
319.795
319.301
318.806
318.311
317.816
317.319
316.821
316.321
315.817
322.754
322.263
321.772
321.28
320.789
320.297
319.805
319.312
318.819
318.326
317.832
317.337
316.841
316.344
315.847
322.755
322.265
321.776
321.286
320.796
320.305
319.815
319.324
318.833
318.341
317.849
317.356
316.862
316.368
315.868
322.756
322.268
321.78
321.291
320.803
320.314
319.825
319.336
318.846
318.356
317.866
317.375
316.884
316.394
315.907
322.757
322.27
321.784
321.297
320.81
320.323
319.836
319.348
318.86
318.372
317.884
317.395
316.906
316.417
315.929
322.758
322.273
321.788
321.303
320.817
320.332
319.847
319.361
318.875
318.388
317.901
317.414
316.927
316.441
315.96
322.758
322.275
321.792
321.309
320.825
320.341
319.858
319.374
318.889
318.404
317.919
317.434
316.948
316.462
315.975
322.759
322.278
321.796
321.314
320.833
320.351
319.869
319.386
318.904
318.421
317.938
317.454
316.969
316.482
315.99
322.76
322.28
321.8
321.321
320.841
320.36
319.88
319.4
318.919
318.438
317.957
317.474
316.991
316.507
316.022
322.761
322.283
321.805
321.327
320.848
320.37
319.892
319.413
318.934
318.455
317.976
317.496
317.015
316.532
316.043
322.762
322.286
321.809
321.333
320.856
320.38
319.903
319.427
318.95
318.473
317.996
317.518
317.04
316.561
316.082
322.763
322.288
321.814
321.339
320.865
320.39
319.915
319.44
318.966
318.491
318.016
317.54
317.065
316.589
316.108
322.764
322.291
321.818
321.346
320.873
320.4
319.927
319.454
318.981
318.508
318.036
317.563
317.091
316.621
316.156
322.765
322.294
321.823
321.352
320.881
320.41
319.939
319.468
318.997
318.526
318.056
317.585
317.116
316.648
316.181
322.765
322.296
321.827
321.358
320.889
320.42
319.951
319.482
319.013
318.544
318.075
317.607
317.14
316.675
316.218
322.766
322.299
321.832
321.365
320.897
320.43
319.963
319.496
319.029
318.562
318.095
317.629
317.163
316.698
316.234
322.767
322.302
321.837
321.371
320.906
320.44
319.975
319.51
319.044
318.579
318.114
317.649
317.185
316.72
316.25
322.768
322.305
321.841
321.378
320.914
320.45
319.987
319.523
319.06
318.596
318.133
317.67
317.207
316.744
316.283
322.769
322.308
321.846
321.384
320.922
320.461
319.999
319.537
319.075
318.614
318.152
317.691
317.23
316.768
316.304
322.77
322.31
321.851
321.391
320.931
320.471
320.011
319.551
319.091
318.631
318.171
317.712
317.253
316.795
316.34
322.771
322.313
321.855
321.397
320.939
320.481
320.023
319.565
319.106
318.648
318.19
317.732
317.275
316.819
316.362
322.772
322.316
321.86
321.404
320.948
320.492
320.035
319.578
319.122
318.665
318.208
317.752
317.297
316.845
316.399
322.773
322.319
321.865
321.411
320.957
320.502
320.047
319.592
319.137
318.682
318.226
317.771
317.317
316.866
316.418
322.774
322.322
321.87
321.418
320.965
320.513
320.06
319.607
319.153
318.699
318.244
317.789
317.336
316.884
316.44
322.775
322.325
321.875
321.425
320.974
320.524
320.073
319.621
319.169
318.716
318.262
317.807
317.352
316.899
316.449
322.776
322.328
321.88
321.432
320.984
320.535
320.086
319.636
319.185
318.734
318.28
317.825
317.369
316.911
316.454
322.777
322.331
321.886
321.44
320.993
320.547
320.1
319.652
319.203
318.752
318.3
317.844
317.385
316.922
316.457
322.778
322.335
321.891
321.447
321.003
320.559
320.114
319.668
319.221
318.773
318.322
317.866
317.405
316.935
316.457
322.779
322.338
321.896
321.455
321.013
320.571
320.129
319.685
319.241
318.795
318.346
317.893
317.431
316.953
316.442
322.78
322.341
321.902
321.463
321.023
320.584
320.144
319.703
319.262
318.819
318.374
317.925
317.468
316.994
316.479
289.683
289.154
288.668
288.199
287.738
287.281
286.827
286.375
285.924
285.473
285.023
284.573
284.124
283.674
283.225
289.717
289.192
288.702
288.228
287.763
287.303
286.846
286.391
285.938
285.485
285.032
284.58
284.129
283.677
283.226
289.694
289.205
288.724
288.251
287.785
287.323
286.864
286.406
285.951
285.496
285.041
284.587
284.134
283.68
283.227
289.69
289.214
288.74
288.269
287.803
287.34
286.88
286.421
285.963
285.506
285.05
284.594
284.138
283.683
283.228
289.69
289.221
288.752
288.285
287.82
287.356
286.895
286.434
285.975
285.516
285.058
284.6
284.143
283.686
283.229
289.689
289.228
288.764
288.299
287.835
287.371
286.909
286.447
285.986
285.526
285.066
284.607
284.147
283.688
283.229
289.693
289.237
288.776
288.313
287.849
287.385
286.922
286.459
285.997
285.535
285.074
284.613
284.152
283.691
283.23
289.707
289.25
288.79
288.327
287.863
287.399
286.935
286.471
286.008
285.544
285.081
284.619
284.156
283.694
283.231
289.72
289.266
288.805
288.342
287.878
287.413
286.948
286.483
286.018
285.553
285.089
284.624
284.16
283.696
283.232
289.748
289.285
288.822
288.358
287.892
287.426
286.96
286.494
286.028
285.562
285.096
284.63
284.164
283.699
283.233
289.765
289.304
288.839
288.374
287.907
287.44
286.973
286.506
286.038
285.571
285.103
284.636
284.168
283.701
283.234
289.794
289.325
288.858
288.39
287.923
287.454
286.986
286.517
286.048
285.579
285.11
284.641
284.172
283.703
283.234
289.811
289.345
288.876
288.407
287.938
287.469
286.999
286.529
286.058
285.588
285.117
284.647
284.176
283.706
283.235
289.839
289.365
288.895
288.425
287.954
287.483
287.012
286.54
286.068
285.596
285.124
284.652
284.18
283.708
283.236
289.852
289.383
288.913
288.442
287.97
287.498
287.025
286.552
286.078
285.605
285.131
284.658
284.184
283.71
283.237
289.866
289.402
288.932
288.46
287.987
287.513
287.038
286.564
286.089
285.614
285.138
284.663
284.188
283.713
283.238
289.898
289.426
288.953
288.479
288.004
287.528
287.052
286.575
286.099
285.622
285.146
284.669
284.192
283.715
283.238
289.92
289.45
288.975
288.498
288.021
287.543
287.065
286.587
286.109
285.631
285.153
284.674
284.196
283.718
283.239
289.961
289.478
288.998
288.518
288.039
287.559
287.079
286.599
286.12
285.64
285.16
284.68
284.2
283.72
283.24
289.984
289.503
289.02
288.538
288.056
287.574
287.093
286.611
286.13
285.648
285.167
284.685
284.204
283.722
283.241
290.019
289.528
289.042
288.557
288.073
287.59
287.107
286.623
286.14
285.657
285.174
284.691
284.208
283.725
283.242
290.038
289.55
289.063
288.576
288.091
287.605
287.12
286.635
286.15
285.666
285.181
284.696
284.212
283.727
283.242
290.067
289.572
289.083
288.595
288.107
287.62
287.134
286.647
286.16
285.674
285.188
284.702
284.215
283.729
283.243
290.08
289.591
289.102
288.613
288.124
287.635
287.147
286.659
286.171
285.683
285.195
284.707
284.219
283.731
283.244
290.094
289.61
289.121
288.631
288.14
287.65
287.16
286.67
286.18
285.691
285.202
284.712
284.223
283.734
283.245
290.123
289.631
289.14
288.648
288.156
287.665
287.173
286.682
286.19
285.699
285.208
284.717
284.227
283.736
283.245
290.142
289.653
289.16
288.666
288.173
287.679
287.186
286.693
286.2
285.707
285.215
284.723
284.23
283.738
283.246
290.178
289.677
289.18
288.684
288.188
287.693
287.198
286.704
286.209
285.715
285.221
284.728
284.234
283.74
283.247
290.198
289.699
289.2
288.701
288.204
287.707
287.211
286.715
286.219
285.723
285.228
284.733
284.238
283.743
283.247
290.227
289.72
289.218
288.718
288.219
287.721
287.223
286.725
286.228
285.731
285.234
284.738
284.241
283.745
283.248
290.242
289.739
289.236
288.734
288.234
287.734
287.235
286.736
286.237
285.739
285.24
284.742
284.244
283.747
283.249
290.265
289.757
289.252
288.75
288.248
287.747
287.246
286.746
286.246
285.746
285.246
284.747
284.248
283.749
283.25
290.276
289.771
289.268
288.764
288.261
287.759
287.257
286.756
286.254
285.753
285.252
284.752
284.251
283.751
283.25
290.286
289.786
289.282
288.778
288.275
287.771
287.268
286.765
286.263
285.76
285.258
284.756
284.254
283.753
283.251
290.308
289.803
289.298
288.793
288.288
287.783
287.279
286.775
286.271
285.767
285.264
284.761
284.258
283.754
283.251
290.323
289.819
289.313
288.806
288.3
287.795
287.289
286.784
286.279
285.774
285.269
284.765
284.261
283.756
283.252
290.349
289.837
289.328
288.82
288.313