/*--------------------------------*- C++ -*----------------------------------*\
| =========                 |                                                 |
| \\      /  F ield         | OpenFOAM: The Open Source CFD Toolbox           |
|  \\    /   O peration     | Version:  5.x                                   |
|   \\  /    A nd           | Web:      www.OpenFOAM.org                      |
|    \\/     M anipulation  |                                                 |
\*---------------------------------------------------------------------------*/
FoamFile
{
    version     2.0;
    format      ascii;
    class       volScalarField;
    location    "4.6";
    object      gradTx;
}
// * * * * * * * * * * * * * * * * * * * * * * * * * * * * * * * * * * * * * //

dimensions      [0 -1 0 1 0 0 0];

internalField   nonuniform List<scalar> 
6300
(
-51.0718
-51.0535
-51.0168
-50.9616
-50.8877
-50.795
-50.6834
-50.5532
-50.4047
-50.2386
-50.056
-49.8583
-49.6469
-49.4235
-49.1893
-51.0905
-51.0722
-51.0357
-50.9806
-50.9068
-50.8142
-50.7025
-50.5719
-50.4227
-50.2556
-50.0716
-49.8723
-49.6593
-49.4346
-49.1997
-51.1278
-51.1097
-51.0734
-51.0187
-50.9453
-50.8527
-50.7409
-50.6095
-50.4589
-50.2897
-50.1029
-49.9003
-49.6839
-49.4563
-49.2198
-51.1835
-51.1657
-51.13
-51.076
-51.0032
-50.911
-50.799
-50.6668
-50.5142
-50.3418
-50.1505
-49.9424
-49.7202
-49.4873
-49.2475
-51.2574
-51.2401
-51.2053
-51.1524
-51.0808
-50.9896
-50.8778
-50.7448
-50.5898
-50.4131
-50.2154
-49.999
-49.7675
-49.5258
-49.2795
-51.3489
-51.3324
-51.2989
-51.2479
-51.1783
-51.089
-50.9784
-50.845
-50.6877
-50.5057
-50.2995
-50.0712
-49.8255
-49.5692
-49.3112
-51.4574
-51.4419
-51.4105
-51.3623
-51.2961
-51.21
-51.102
-50.9696
-50.8105
-50.6228
-50.4059
-50.1614
-49.8944
-49.6146
-49.3358
-51.5817
-51.5677
-51.5392
-51.4952
-51.434
-51.3534
-51.2503
-51.1213
-50.9624
-50.7697
-50.5403
-50.2743
-49.9765
-49.6595
-49.344
-51.7203
-51.7084
-51.6839
-51.6457
-51.5918
-51.5195
-51.425
-51.3033
-51.1485
-50.9535
-50.7119
-50.4194
-50.0784
-49.7031
-49.3243
-51.8712
-51.8619
-51.8427
-51.8122
-51.7685
-51.7083
-51.6272
-51.5189
-51.375
-51.1844
-50.9346
-50.6133
-50.2148
-49.7507
-49.2633
-52.0319
-52.0258
-52.013
-51.9924
-51.9619
-51.9183
-51.857
-51.7706
-51.6484
-51.475
-51.2291
-50.8847
-50.4171
-49.8218
-49.1491
-52.1991
-52.1967
-52.1916
-52.1828
-52.1687
-52.1466
-52.1122
-52.0583
-51.9734
-51.8383
-51.6226
-51.2795
-50.7472
-49.9707
-48.9788
-52.3689
-52.3708
-52.3742
-52.3789
-52.3839
-52.3876
-52.3872
-52.3775
-52.3488
-52.2826
-52.1435
-51.8639
-51.3219
-50.3353
-48.7793
-52.5374
-52.5436
-52.5561
-52.5751
-52.6007
-52.633
-52.6718
-52.7159
-52.7619
-52.8001
-52.8054
-52.7108
-52.3416
-51.2699
-48.6975
-52.7
-52.7105
-52.7319
-52.765
-52.8111
-52.8723
-52.9514
-53.0528
-53.183
-53.3509
-53.5673
-53.8327
-54.0645
-53.7058
-49.635
-48.9662
-48.7556
-48.5371
-48.3096
-48.0713
-47.82
-47.5535
-47.2694
-46.966
-46.642
-46.2966
-45.9303
-45.5437
-45.1385
-44.7167
-44.2806
-43.8329
-43.3764
-42.9138
-42.4482
-41.9824
-41.5194
-41.0618
-40.6123
-40.173
-39.7459
-39.3322
-38.9331
-38.5492
-38.1806
-37.8271
-37.4881
-37.1627
-36.8497
-36.5479
-36.2559
-35.9723
-35.6957
-35.425
-35.1588
-34.8962
-34.6361
-34.3777
-34.1207
-33.8646
-33.6097
-33.3566
-33.1062
-32.8598
-32.6189
-32.3851
-32.16
-31.9451
-31.7417
-31.5508
-31.3734
-31.2099
-31.0607
-30.9258
-30.8052
-30.6985
-30.6055
-30.5258
-30.4591
-30.4052
-30.3639
-30.3351
-30.3188
-30.3149
-30.3234
-30.3442
-30.3773
-30.4229
-30.4809
-30.5515
-30.6347
-30.7305
-30.8389
-30.9596
-31.0925
-31.2371
-31.3931
-31.5601
-31.7373
-31.924
-32.1192
-32.3215
-32.5295
-32.7414
-32.955
-48.9768
-48.7672
-48.5506
-48.3256
-48.0904
-47.8424
-47.5791
-47.2977
-46.9962
-46.6729
-46.3274
-45.9597
-45.5709
-45.1628
-44.7375
-44.2977
-43.846
-43.3853
-42.9186
-42.4487
-41.9788
-41.5118
-41.0506
-40.5979
-40.1559
-39.7266
-39.3115
-38.9116
-38.5274
-38.1591
-37.8064
-37.4687
-37.1449
-36.8338
-36.534
-36.244
-35.9623
-35.6875
-35.4185
-35.1539
-34.8926
-34.6336
-34.376
-34.1192
-33.8629
-33.6072
-33.3527
-33.1004
-32.8518
-32.6086
-32.3725
-32.1452
-31.9284
-31.7234
-31.5314
-31.3531
-31.1892
-31.0399
-30.9051
-30.7848
-30.6786
-30.5861
-30.5068
-30.4404
-30.3867
-30.3456
-30.3169
-30.3007
-30.2968
-30.3053
-30.3261
-30.3592
-30.4046
-30.4625
-30.533
-30.6162
-30.7121
-30.8207
-30.9418
-31.0751
-31.2203
-31.3771
-31.5449
-31.7233
-31.9114
-32.1084
-32.313
-32.5236
-32.7383
-32.9551
-48.997
-48.7893
-48.5764
-48.3569
-48.1283
-47.8875
-47.631
-47.3555
-47.0579
-46.7365
-46.3904
-46.0199
-45.6264
-45.2122
-44.7798
-44.3323
-43.8725
-43.4035
-42.9282
-42.4497
-41.9713
-41.4962
-41.0276
-40.5683
-40.1208
-39.6873
-39.2693
-38.8677
-38.483
-38.1154
-37.7645
-37.4295
-37.1091
-36.8019
-36.5062
-36.2202
-35.9424
-35.6713
-35.4057
-35.1442
-34.8858
-34.6292
-34.3733
-34.1172
-33.8604
-33.603
-33.3455
-33.0894
-32.8362
-32.588
-32.3471
-32.1153
-31.8946
-31.6865
-31.492
-31.3121
-31.1473
-30.9978
-30.8635
-30.744
-30.6388
-30.5473
-30.4689
-30.4032
-30.3499
-30.309
-30.2805
-30.2643
-30.2606
-30.2691
-30.2899
-30.3228
-30.368
-30.4256
-30.4958
-30.5789
-30.675
-30.7841
-30.9059
-31.0401
-31.1865
-31.3446
-31.5141
-31.6946
-31.8856
-32.0863
-32.2953
-32.5112
-32.7319
-32.955
-49.0242
-48.8193
-48.6124
-48.4017
-48.1842
-47.9555
-47.7108
-47.4452
-47.1546
-46.8361
-46.4889
-46.1135
-45.7122
-45.288
-44.8444
-44.3849
-43.9127
-43.431
-42.9427
-42.451
-41.9595
-41.4717
-40.9913
-40.5218
-40.066
-39.6261
-39.2036
-38.7995
-38.4143
-38.048
-37.7
-37.3694
-37.0546
-36.7537
-36.4645
-36.1848
-35.913
-35.6475
-35.387
-35.1304
-34.8765
-34.6238
-34.3708
-34.1161
-33.8589
-33.5988
-33.3366
-33.0739
-32.8132
-32.557
-32.3083
-32.0695
-31.8427
-31.6296
-31.4315
-31.2492
-31.0832
-30.9336
-30.8003
-30.6824
-30.5791
-30.4894
-30.4125
-30.3477
-30.295
-30.2543
-30.2259
-30.2099
-30.2063
-30.215
-30.2358
-30.2685
-30.3131
-30.37
-30.4397
-30.5226
-30.6189
-30.7287
-30.8517
-30.9874
-31.1353
-31.2952
-31.467
-31.6505
-31.8455
-32.0515
-32.2674
-32.4915
-32.7215
-32.9546
-49.0543
-48.8527
-48.6542
-48.4568
-48.2565
-48.0471
-47.8212
-47.5715
-47.2916
-46.9776
-46.6283
-46.245
-45.8313
-45.3921
-44.9322
-44.4561
-43.9672
-43.4684
-42.9625
-42.4526
-41.9425
-41.4368
-40.9399
-40.4561
-39.9887
-39.5401
-39.1118
-38.7046
-38.3187
-37.9543
-37.6107
-37.2868
-36.9805
-36.6889
-36.4091
-36.1385
-35.8747
-35.6165
-35.3628
-35.1129
-34.8655
-34.6189
-34.3709
-34.1189
-33.8614
-33.5976
-33.3283
-33.0558
-32.7835
-32.5153
-32.2551
-32.0061
-31.7709
-31.5512
-31.3481
-31.1626
-30.9952
-30.846
-30.7145
-30.5995
-30.4996
-30.413
-30.3383
-30.2748
-30.2224
-30.1816
-30.153
-30.1372
-30.1341
-30.1433
-30.1642
-30.1965
-30.2401
-30.2957
-30.3642
-30.4464
-30.5431
-30.654
-30.7788
-30.9166
-31.0665
-31.2285
-31.4025
-31.5892
-31.7891
-32.0021
-32.2273
-32.4629
-32.7062
-32.9536
-49.0808
-48.8821
-48.6946
-48.5167
-48.3425
-48.1629
-47.9664
-47.7415
-47.4782
-47.1705
-46.817
-46.4206
-45.9877
-45.5264
-45.0439
-44.546
-44.0362
-43.5164
-42.9883
-42.4547
-41.9198
-41.3894
-40.8699
-40.3669
-39.8846
-39.4253
-38.99
-38.579
-38.1925
-37.8308
-37.4934
-37.1792
-36.8852
-36.6073
-36.341
-36.0823
-35.8287
-35.579
-35.3333
-35.0918
-34.8535
-34.6163
-34.3765
-34.1299
-33.873
-33.6043
-33.3246
-33.0374
-32.7479
-32.4621
-32.1857
-31.9229
-31.6767
-31.4485
-31.2393
-31.0499
-30.8809
-30.7327
-30.6046
-30.4949
-30.4007
-30.3191
-30.2477
-30.1855
-30.1328
-30.0909
-30.0615
-30.0458
-30.0437
-30.0543
-30.076
-30.1078
-30.1496
-30.2025
-30.2684
-30.3492
-30.4461
-30.5591
-30.6868
-30.8277
-30.9801
-31.1437
-31.3193
-31.5086
-31.7133
-31.9345
-32.1717
-32.4228
-32.6842
-32.9515
-49.0936
-48.8955
-48.7219
-48.5716
-48.4367
-48.3034
-48.1532
-47.9671
-47.7292
-47.4299
-47.0677
-46.649
-46.1857
-45.6914
-45.1782
-44.6536
-44.1201
-43.5768
-43.0226
-42.4589
-41.8909
-41.3269
-40.7765
-40.2483
-39.7477
-39.2763
-38.8336
-38.4185
-38.0311
-37.6723
-37.3432
-37.0427
-36.7669
-36.5092
-36.262
-36.0191
-35.7771
-35.536
-35.2981
-35.066
-34.8402
-34.6176
-34.392
-34.1556
-33.9017
-33.6268
-33.3318
-33.0223
-32.7069
-32.3954
-32.0964
-31.8159
-31.5563
-31.3184
-31.1019
-30.9075
-30.7366
-30.5903
-30.4682
-30.3675
-30.2833
-30.2102
-30.1438
-30.0824
-30.0273
-29.9819
-29.9501
-29.9345
-29.9349
-29.9488
-29.9728
-30.0043
-30.0427
-30.0902
-30.1507
-30.2283
-30.3257
-30.4424
-30.5756
-30.7216
-30.8772
-31.0414
-31.216
-31.4052
-31.6134
-31.8435
-32.0957
-32.3673
-32.6534
-32.9476
-49.0775
-48.8741
-48.7162
-48.6046
-48.5293
-48.4685
-48.392
-48.2678
-48.0691
-47.7802
-47.4003
-46.9423
-46.4286
-45.8841
-45.3293
-44.7744
-44.2184
-43.6533
-43.071
-42.4698
-41.8565
-41.245
-40.6516
-40.0905
-39.5688
-39.0862
-38.6377
-38.2186
-37.8285
-37.4714
-37.1519
-36.871
-36.6229
-36.396
-36.177
-35.9548
-35.7245
-35.4884
-35.2545
-35.0313
-34.8223
-34.6234
-34.4231
-34.2066
-33.9608
-33.6782
-33.36
-33.0156
-32.6602
-32.3106
-31.9806
-31.6784
-31.4049
-31.1572
-30.9326
-30.7312
-30.5565
-30.4127
-30.3008
-30.2161
-30.1498
-30.0913
-30.0323
-29.9699
-29.9074
-29.8529
-29.8152
-29.7998
-29.8061
-29.8284
-29.8586
-29.8905
-29.9225
-29.9587
-30.0078
-30.0787
-30.1769
-30.3014
-30.4457
-30.6014
-30.7614
-30.9234
-31.0914
-31.2741
-31.4814
-31.7202
-31.9913
-32.2906
-32.6102
-32.9413
-49.01
-48.7878
-48.6439
-48.5856
-48.6014
-48.6566
-48.6999
-48.6762
-48.5391
-48.2621
-47.8457
-47.3161
-46.7161
-46.0921
-45.4809
-44.8971
-44.3303
-43.7548
-43.147
-42.4985
-41.82
-41.1372
-40.4807
-39.8761
-39.3341
-38.8475
-38.3996
-37.9771
-37.5789
-37.2166
-36.9053
-36.6522
-36.4483
-36.2719
-36.0969
-35.9024
-35.6802
-35.438
-35.1958
-34.976
-34.7901
-34.6313
-34.4775
-34.3
-34.0728
-33.781
-33.4259
-33.0248
-32.6052
-32.1972
-31.8249
-31.4993
-31.2161
-30.9629
-30.7297
-30.5161
-30.3319
-30.1892
-30.0938
-30.0382
-30.0048
-29.9728
-29.9256
-29.8574
-29.7759
-29.6993
-29.6478
-29.6335
-29.6542
-29.6961
-29.7416
-29.7762
-29.7957
-29.8085
-29.8331
-29.8896
-29.9899
-30.1313
-30.2992
-30.4747
-30.6423
-30.7965
-30.9452
-31.1071
-31.3038
-31.5497
-31.8461
-32.184
-32.5502
-32.9318
-48.858
-48.5888
-48.4487
-48.4602
-48.6171
-48.862
-49.1047
-49.2482
-49.2109
-48.9451
-48.4544
-47.7917
-47.0383
-46.2822
-45.593
-44.996
-44.4549
-43.9031
-43.282
-42.5704
-41.7903
-40.9917
-40.2353
-39.5717
-39.0199
-38.5532
-38.1253
-37.7007
-37.2778
-36.8884
-36.5752
-36.3628
-36.2345
-36.1458
-36.0448
-35.8901
-35.665
-35.3874
-35.1051
-34.872
-34.719
-34.6321
-34.5662
-34.4649
-34.2778
-33.9749
-33.5581
-33.0605
-32.5335
-32.0325
-31.602
-31.2592
-30.9839
-30.7396
-30.4983
-30.2589
-30.0471
-29.8974
-29.8292
-29.8282
-29.8578
-29.8758
-29.8487
-29.7638
-29.6371
-29.5094
-29.4266
-29.4166
-29.4713
-29.5587
-29.6397
-29.6834
-29.6782
-29.6409
-29.612
-29.6372
-29.7435
-29.9226
-30.1413
-30.3589
-30.5422
-30.6772
-30.7795
-30.8896
-31.0549
-31.3063
-31.6409
-32.0362
-32.4678
-32.9184
-48.573
-48.2044
-48.0354
-48.1254
-48.5065
-49.0707
-49.6525
-50.0809
-50.2119
-49.9523
-49.3112
-48.3982
-47.3649
-46.3762
-45.5728
-45.0144
-44.5952
-44.1516
-43.5475
-42.7414
-41.7873
-40.7857
-39.8565
-39.1068
-38.5831
-38.2035
-37.8463
-37.4221
-36.9288
-36.4506
-36.1001
-35.9525
-35.9638
-36.0376
-36.0703
-35.9796
-35.7253
-35.3436
-34.9438
-34.6529
-34.5526
-34.6027
-34.706
-34.7533
-34.6495
-34.3327
-33.8064
-33.1388
-32.4243
-31.7662
-31.2527
-30.9216
-30.7072
-30.5119
-30.264
-29.9617
-29.6729
-29.4883
-29.4675
-29.5738
-29.7275
-29.8435
-29.8551
-29.73
-29.4995
-29.2544
-29.1004
-29.1061
-29.2411
-29.4301
-29.5915
-29.6606
-29.6067
-29.4608
-29.313
-29.2674
-29.3922
-29.6566
-29.9847
-30.2924
-30.511
-30.605
-30.6022
-30.5922
-30.6818
-30.9427
-31.3478
-31.8359
-32.3577
-32.8983
-48.0796
-47.5331
-47.2496
-47.3721
-48.1326
-49.2543
-50.4213
-51.3424
-51.7759
-51.5092
-50.5599
-49.1784
-47.6274
-46.2038
-45.2002
-44.8329
-44.771
-44.6313
-44.1045
-43.1258
-41.8532
-40.4756
-39.2198
-38.3166
-37.9393
-37.8216
-37.664
-37.2434
-36.5584
-35.8289
-35.3334
-35.3134
-35.6034
-35.9888
-36.2735
-36.3048
-35.9692
-35.3259
-34.6259
-34.1592
-34.1698
-34.4967
-34.9266
-35.259
-35.3283
-34.9923
-34.2584
-33.2843
-32.234
-31.2917
-30.6404
-30.416
-30.4029
-30.36
-30.1077
-29.6451
-29.1485
-28.8429
-28.9227
-29.251
-29.6511
-29.9616
-30.0577
-29.848
-29.3825
-28.8682
-28.5437
-28.6093
-28.9328
-29.341
-29.6758
-29.8146
-29.6673
-29.2832
-28.8661
-28.652
-28.8395
-29.2986
-29.857
-30.3537
-30.6591
-30.6717
-30.4347
-30.1509
-30.0619
-30.3709
-30.9349
-31.587
-32.2201
-32.8549
-47.2187
-46.484
-45.8799
-45.7011
-47.2393
-49.3735
-51.545
-53.3062
-54.3488
-54.0496
-52.4315
-50.2031
-47.7072
-45.4273
-43.9118
-44.2121
-45.0592
-45.669
-45.3127
-43.934
-42.0709
-39.9904
-38.076
-36.7694
-36.922
-37.4977
-37.8608
-37.4458
-36.2526
-34.8707
-33.8823
-34.2281
-35.106
-36.0851
-36.842
-37.1585
-36.6563
-35.3902
-33.9724
-32.9786
-33.3315
-34.2425
-35.2878
-36.144
-36.5905
-36.2249
-35.0561
-33.5398
-31.8882
-30.3978
-29.4136
-29.6061
-30.1413
-30.5093
-30.2544
-29.377
-28.3488
-27.6422
-28.02
-28.8245
-29.7033
-30.388
-30.7004
-30.3338
-29.3352
-28.2083
-27.425
-27.7406
-28.5021
-29.3572
-30.042
-30.3801
-30.0684
-29.1526
-28.1264
-27.4578
-27.8953
-28.7968
-29.8179
-30.6899
-31.2283
-31.0973
-30.334
-29.4287
-28.868
-29.4316
-30.3948
-31.3648
-32.0797
-32.6994
-45.4091
-45.2467
-43.8975
-41.5574
-45.4875
-49.4394
-53.2599
-56.3054
-58.8541
-58.4897
-55.1822
-51.6135
-47.4762
-43.5504
-40.0089
-42.8043
-45.6895
-48.0982
-47.9935
-45.4398
-42.6021
-39.2663
-36.0572
-33.1212
-35.2955
-37.4805
-39.1782
-38.7689
-36.2185
-33.3461
-30.5102
-32.3767
-34.4632
-36.5015
-38.0451
-39.1913
-38.4437
-35.6732
-32.7083
-29.8588
-31.6895
-33.795
-35.9212
-37.6189
-39.0223
-38.6141
-36.3543
-33.9899
-31.3102
-28.7753
-26.492
-28.3024
-30.1205
-31.5552
-31.2975
-29.3259
-27.0859
-24.8798
-26.5026
-28.2907
-30.0349
-31.3504
-32.3206
-31.7296
-29.4725
-27.0534
-24.7236
-26.2296
-27.9363
-29.6182
-30.907
-31.8807
-31.3392
-29.1806
-26.8716
-24.6706
-26.2825
-28.1224
-29.993
-31.506
-32.7612
-32.4333
-30.4373
-28.2102
-26.0551
-27.9164
-29.8445
-31.5097
-32.0758
-31.9728
-39.524
-45.7184
-43.343
-28.3854
-43.7048
-49.695
-56.0912
-60.0206
-67.5547
-67.1684
-58.3097
-53.8431
-46.9413
-41.1207
-26.981
-41.268
-47.0063
-54.1472
-54.2015
-47.355
-43.8511
-38.3601
-33.6457
-22.1144
-33.654
-38.1654
-43.5301
-43.1757
-36.6485
-31.7691
-20.3671
-30.2088
-33.8899
-37.6305
-39.8207
-43.9514
-43.1441
-36.2363
-31.2783
-19.9997
-29.6521
-33.3178
-37.1718
-39.5175
-44.0628
-43.6698
-37.8031
-34.894
-30.5237
-26.7902
-17.6755
-26.9877
-30.6517
-35.0382
-34.8082
-29.6613
-25.774
-16.6037
-24.7468
-27.8199
-30.9836
-32.8096
-36.1884
-35.524
-29.8428
-25.7695
-16.4982
-24.429
-27.4058
-30.4447
-32.2254
-35.5629
-34.938
-29.4248
-25.461
-16.3921
-24.3411
-27.4036
-30.6824
-32.693
-36.5734
-36.1705
-30.873
-26.8875
-17.4579
-26.3048
-29.6723
-33.237
-33.0344
-28.2497
-33.1895
-33.4415
-33.6859
-33.9194
-34.139
-34.3422
-34.5275
-34.6933
-34.839
-34.964
-35.068
-35.1512
-35.2134
-35.2548
-35.2755
-33.193
-33.4487
-33.6965
-33.9329
-34.1548
-34.3599
-34.5464
-34.7131
-34.8593
-34.9845
-35.0886
-35.1717
-35.2338
-35.2751
-35.2957
-33.2001
-33.4633
-33.718
-33.9603
-34.187
-34.3957
-34.5847
-34.753
-34.9001
-35.0256
-35.1298
-35.2127
-35.2746
-35.3157
-35.3362
-33.211
-33.4861
-33.7515
-34.0029
-34.2367
-34.4507
-34.6433
-34.8138
-34.9619
-35.0878
-35.1918
-35.2743
-35.3357
-35.3765
-35.3968
-33.2262
-33.5182
-33.7986
-34.0624
-34.3059
-34.5267
-34.7237
-34.8965
-35.0456
-35.1714
-35.2748
-35.3565
-35.4172
-35.4573
-35.4773
-33.2463
-33.5613
-33.8619
-34.1419
-34.3973
-34.6261
-34.8277
-35.0026
-35.152
-35.2771
-35.3791
-35.4594
-35.5187
-35.5579
-35.5773
-33.2726
-33.6185
-33.9453
-34.2455
-34.5149
-34.7521
-34.9579
-35.1338
-35.2822
-35.4053
-35.5049
-35.5827
-35.64
-35.6777
-35.6964
-33.3072
-33.6944
-34.055
-34.3796
-34.6642
-34.9093
-35.1174
-35.2922
-35.4374
-35.5565
-35.652
-35.7261
-35.7805
-35.8161
-35.8338
-33.3539
-33.7965
-34.2002
-34.5532
-34.8529
-35.103
-35.3097
-35.4796
-35.6184
-35.7307
-35.82
-35.8889
-35.9392
-35.9721
-35.9884
-33.4186
-33.9374
-34.3958
-34.7797
-35.091
-35.3399
-35.5387
-35.6978
-35.8254
-35.9274
-36.008
-36.0698
-36.1149
-36.1444
-36.1589
-33.5106
-34.1383
-34.6657
-35.0784
-35.3912
-35.627
-35.8071
-35.9472
-36.0576
-36.1452
-36.2141
-36.2671
-36.3057
-36.3311
-36.3436
-33.6423
-34.4391
-35.0496
-35.4764
-35.7678
-35.9697
-36.1156
-36.226
-36.3124
-36.3811
-36.4358
-36.4782
-36.5095
-36.5301
-36.5403
-33.8308
-34.9254
-35.6166
-36.0089
-36.2323
-36.3679
-36.4597
-36.5287
-36.5845
-36.6308
-36.6692
-36.7001
-36.7234
-36.739
-36.7469
-34.1441
-35.8146
-36.4834
-36.7104
-36.7832
-36.8095
-36.8263
-36.8446
-36.8657
-36.8881
-36.9097
-36.929
-36.9445
-36.9553
-36.9609
-35.1599
-37.7043
-37.7912
-37.5665
-37.3794
-37.2597
-37.1915
-37.1577
-37.1454
-37.1456
-37.1522
-37.1612
-37.1698
-37.1764
-37.18
-52.8398
-52.8539
-52.8827
-52.9275
-52.9906
-53.0755
-53.1875
-53.3356
-53.5345
-53.8114
-54.2213
-54.8926
-56.1859
-59.3415
-69.4813
-52.9573
-52.9742
-53.0089
-53.0629
-53.139
-53.2415
-53.3774
-53.5574
-53.7999
-54.1378
-54.6346
-55.4248
-56.822
-59.6142
-65.8095
-53.0634
-53.0826
-53.1219
-53.1831
-53.2692
-53.3847
-53.5367
-53.7359
-53.9992
-54.3541
-54.8445
-55.5361
-56.4894
-57.5239
-56.7899
-53.1564
-53.1773
-53.2201
-53.2864
-53.3792
-53.5027
-53.6633
-53.8698
-54.1351
-54.4765
-54.9153
-55.4663
-56.1007
-56.6618
-56.9038
-53.2351
-53.2572
-53.3021
-53.3716
-53.4681
-53.5953
-53.7581
-53.9631
-54.2181
-54.5317
-54.9089
-55.3387
-55.7631
-56.0215
-55.7294
-53.2987
-53.3214
-53.3675
-53.4383
-53.5359
-53.6632
-53.8237
-54.0215
-54.2605
-54.5433
-54.8669
-55.2148
-55.5409
-55.7641
-55.8012
-53.3468
-53.3697
-53.416
-53.4867
-53.5835
-53.7083
-53.8634
-54.0511
-54.2725
-54.5269
-54.8093
-55.106
-55.39
-55.6366
-55.8952
-53.3794
-53.402
-53.4478
-53.5173
-53.6118
-53.7325
-53.8807
-54.0571
-54.2615
-54.4917
-54.7428
-55.0059
-55.2651
-55.5013
-55.6296
-53.3965
-53.4186
-53.4633
-53.5309
-53.6221
-53.7378
-53.8783
-54.0436
-54.2325
-54.4423
-54.6693
-54.9085
-55.1563
-55.4416
-55.9849
-53.3985
-53.4199
-53.4631
-53.5283
-53.6158
-53.726
-53.8589
-54.0137
-54.1888
-54.3815
-54.5884
-54.8052
-55.0213
-55.2032
-55.102
-53.3858
-53.4065
-53.448
-53.5104
-53.594
-53.6987
-53.8242
-53.9694
-54.1327
-54.3112
-54.5021
-54.7022
-54.9101
-55.1621
-55.7572
-53.359
-53.3788
-53.4186
-53.4782
-53.5579
-53.6572
-53.7758
-53.9126
-54.0658
-54.2328
-54.4105
-54.5939
-54.7683
-54.8832
-54.6089
-53.3187
-53.3376
-53.3756
-53.4325
-53.5082
-53.6026
-53.7149
-53.8443
-53.9892
-54.1473
-54.3162
-54.4918
-54.6677
-54.875
-55.48
-53.2654
-53.2835
-53.3197
-53.3739
-53.4459
-53.5356
-53.6422
-53.7651
-53.9031
-54.0547
-54.2184
-54.3895
-54.5452
-54.5914
-54.0426
-53.1999
-53.2171
-53.2516
-53.3031
-53.3717
-53.4569
-53.5583
-53.6754
-53.8074
-53.9542
-54.1167
-54.2979
-54.4989
-54.7215
-54.9457
-53.1227
-53.1391
-53.1719
-53.2209
-53.2861
-53.3671
-53.4636
-53.5752
-53.7014
-53.8429
-54.0033
-54.1925
-54.4374
-54.8511
-56.0012
-53.0343
-53.0499
-53.0811
-53.1278
-53.1898
-53.2668
-53.3586
-53.4646
-53.5846
-53.719
-53.8711
-54.0484
-54.2587
-54.4697
-54.1695
-52.9353
-52.9501
-52.9798
-53.0242
-53.0832
-53.1565
-53.2437
-53.3442
-53.4575
-53.5832
-53.7227
-53.8813
-54.0795
-54.444
-55.8086
-52.8262
-52.8403
-52.8686
-52.9108
-52.9669
-53.0367
-53.1195
-53.2149
-53.3216
-53.4382
-53.5621
-53.6868
-53.7847
-53.7245
-52.6505
-52.7076
-52.721
-52.7479
-52.7881
-52.8415
-52.9079
-52.9868
-53.0775
-53.1788
-53.2884
-53.402
-53.5109
-53.5996
-53.7094
-54.485
-52.5798
-52.5926
-52.6181
-52.6564
-52.7072
-52.7705
-52.8459
-52.9328
-53.0301
-53.136
-53.2464
-53.349
-53.3999
-53.2324
-52.0327
-52.4434
-52.4555
-52.4798
-52.5162
-52.5646
-52.6249
-52.697
-52.7806
-52.8754
-52.981
-53.0972
-53.223
-53.3517
-53.4728
-53.5668
-52.2987
-52.3102
-52.3333
-52.3678
-52.4139
-52.4713
-52.5402
-52.6206
-52.713
-52.8188
-52.9424
-53.0949
-53.3088
-53.7327
-55.1631
-52.1463
-52.1572
-52.179
-52.2118
-52.2554
-52.31
-52.3755
-52.4522
-52.5411
-52.6446
-52.7687
-52.9242
-53.1199
-53.294
-52.716
-51.9864
-51.9967
-52.0174
-52.0484
-52.0896
-52.1411
-52.2029
-52.2752
-52.3589
-52.4564
-52.574
-52.7257
-52.9458
-53.3781
-54.8987
-51.8196
-51.8293
-51.8488
-51.8781
-51.9169
-51.9653
-52.0231
-52.0903
-52.1671
-52.2546
-52.3566
-52.4797
-52.6245
-52.7069
-51.8516
-51.6462
-51.6554
-51.6738
-51.7013
-51.7378
-51.783
-51.8368
-51.8985
-51.9675
-52.0431
-52.1256
-52.2186
-52.3463
-52.6873
-54.4913
-51.4665
-51.4752
-51.4925
-51.5184
-51.5527
-51.5951
-51.645
-51.7016
-51.7633
-51.8272
-51.8881
-51.9334
-51.92
-51.6521
-49.8814
-51.281
-51.2892
-51.3055
-51.3299
-51.3622
-51.4019
-51.4486
-51.5011
-51.5574
-51.6136
-51.6623
-51.6888
-51.6705
-51.661
-52.5395
-51.09
-51.0977
-51.1131
-51.1361
-51.1666
-51.2041
-51.2482
-51.2979
-51.3515
-51.4054
-51.4527
-51.4753
-51.4148
-51.0535
-49.3262
-50.8938
-50.9011
-50.9156
-50.9374
-50.9662
-51.0019
-51.044
-51.092
-51.1451
-51.202
-51.2612
-51.3194
-51.368
-51.3951
-51.3905
-50.6926
-50.6995
-50.7133
-50.7339
-50.7613
-50.7952
-50.8356
-50.8824
-50.9359
-50.9974
-51.0712
-51.1701
-51.336
-51.7591
-53.4497
-50.4868
-50.4933
-50.5064
-50.5259
-50.5519
-50.5842
-50.6229
-50.6682
-50.7211
-50.7843
-50.8644
-50.9743
-51.1253
-51.2433
-50.4328
-50.2765
-50.2827
-50.2951
-50.3136
-50.3382
-50.3688
-50.4055
-50.4485
-50.499
-50.5597
-50.6378
-50.7498
-50.9376
-51.3725
-53.0996
-50.0621
-50.0679
-50.0797
-50.0972
-50.1205
-50.1494
-50.1838
-50.2237
-50.2696
-50.3231
-50.3883
-50.4728
-50.5781
-50.6048
-49.5211
-49.8436
-49.8492
-49.8604
-49.877
-49.899
-49.9262
-49.9582
-49.9946
-50.035
-50.0786
-50.1259
-50.1811
-50.2732
-50.6084
-52.6315
-49.6214
-49.6268
-49.6374
-49.6532
-49.674
-49.6996
-49.7295
-49.7628
-49.7979
-49.8318
-49.8586
-49.8639
-49.7993
-49.4402
-47.3532
-49.3956
-49.4007
-49.4108
-49.426
-49.4458
-49.4702
-49.4985
-49.5297
-49.5616
-49.5901
-49.6069
-49.5951
-49.53
-49.4722
-50.4166
-49.1663
-49.1712
-49.181
-49.1955
-49.2146
-49.2381
-49.2655
-49.2959
-49.3275
-49.3567
-49.3754
-49.3632
-49.2554
-48.8086
-46.8286
-48.9337
-48.9385
-48.9479
-48.9619
-48.9805
-49.0034
-49.0305
-49.0613
-49.095
-49.1306
-49.1661
-49.1975
-49.2163
-49.2099
-49.1707
-48.6979
-48.7025
-48.7116
-48.7252
-48.7433
-48.7659
-48.7929
-48.8245
-48.8612
-48.9047
-48.9599
-49.0406
-49.1945
-49.6343
-51.4847
-48.459
-48.4634
-48.4723
-48.4855
-48.5032
-48.5253
-48.5521
-48.5841
-48.6226
-48.6709
-48.7363
-48.8327
-48.9742
-49.0792
-48.158
-48.217
-48.2213
-48.2299
-48.2428
-48.26
-48.2815
-48.3077
-48.3391
-48.3771
-48.4252
-48.4914
-48.5936
-48.7791
-49.2368
-51.116
-47.9721
-47.9763
-47.9846
-47.9971
-48.0138
-48.0346
-48.0597
-48.0894
-48.1246
-48.1671
-48.2217
-48.2967
-48.3949
-48.4075
-47.2024
-47.7244
-47.7284
-47.7365
-47.7486
-47.7647
-47.7847
-47.8085
-47.8359
-47.8668
-47.9007
-47.9381
-47.9837
-48.0701
-48.4239
-50.6277
-47.4738
-47.4777
-47.4856
-47.4973
-47.5129
-47.5321
-47.5548
-47.5801
-47.6068
-47.6319
-47.649
-47.6421
-47.5596
-47.1556
-44.8612
-47.2205
-47.2243
-47.2319
-47.2434
-47.2585
-47.2772
-47.2991
-47.3233
-47.3479
-47.3687
-47.3766
-47.3531
-47.2722
-47.2002
-48.2234
-46.9645
-46.9682
-46.9757
-46.9869
-47.0017
-47.0202
-47.0419
-47.0662
-47.0916
-47.1145
-47.1261
-47.1039
-46.9786
-46.4843
-44.3171
-46.7059
-46.7095
-46.7168
-46.7278
-46.7424
-46.7608
-46.7828
-46.8083
-46.837
-46.868
-46.8992
-46.9263
-46.9411
-46.9302
-46.8852
-46.4447
-46.4483
-46.4554
-46.4661
-46.4805
-46.4988
-46.5212
-46.5482
-46.5809
-46.6214
-46.675
-46.7572
-46.9213
-47.3999
-49.4224
-46.1811
-46.1845
-46.1914
-46.2018
-46.2159
-46.234
-46.2564
-46.2842
-46.3193
-46.3655
-46.431
-46.5313
-46.6829
-46.7973
-45.7923
-45.915
-45.9183
-45.9249
-45.9349
-45.9486
-45.9661
-45.9879
-46.0152
-46.0498
-46.0961
-46.1628
-46.2699
-46.4702
-46.9722
-49.0371
-45.6465
-45.6496
-45.656
-45.6655
-45.6785
-45.6951
-45.7157
-45.741
-45.7724
-45.8124
-45.8664
-45.9435
-46.0482
-46.0616
-44.7411
-45.3758
-45.3787
-45.3847
-45.3937
-45.4058
-45.4212
-45.4401
-45.4626
-45.4889
-45.519
-45.5536
-45.598
-45.6893
-46.0774
-48.5045
-45.103
-45.1057
-45.1112
-45.1195
-45.1308
-45.1449
-45.162
-45.1816
-45.2026
-45.2224
-45.2339
-45.2198
-45.1243
-44.6771
-42.1506
-44.8281
-44.8306
-44.8357
-44.8433
-44.8536
-44.8665
-44.882
-44.8995
-44.9174
-44.9314
-44.9317
-44.8982
-44.8033
-44.7207
-45.8473
-44.5515
-44.5537
-44.5583
-44.5651
-44.5745
-44.5863
-44.6007
-44.6173
-44.6348
-44.6497
-44.6527
-44.6191
-44.4738
-43.9245
-41.5335
-44.2731
-44.2751
-44.2791
-44.2851
-44.2935
-44.3043
-44.3179
-44.3344
-44.354
-44.3761
-44.3987
-44.4176
-44.4248
-44.4069
-44.355
-43.9933
-43.995
-43.9983
-44.0034
-44.0107
-44.0203
-44.0329
-44.0494
-44.0715
-44.1019
-44.147
-44.224
-44.3932
-44.9128
-47.1419
-43.7122
-43.7135
-43.7161
-43.7202
-43.726
-43.7341
-43.7452
-43.7607
-43.7831
-43.8173
-43.8727
-43.9664
-44.1182
-44.2313
-43.1114
-43.4301
-43.431
-43.4327
-43.4356
-43.4397
-43.4457
-43.4544
-43.4671
-43.4866
-43.5179
-43.5712
-43.6686
-43.8699
-44.406
-46.672
-43.1473
-43.1477
-43.1485
-43.1498
-43.152
-43.1554
-43.1606
-43.1688
-43.1819
-43.2031
-43.2385
-43.2985
-43.389
-43.3791
-41.8976
-42.8641
-42.8639
-42.8636
-42.8634
-42.8633
-42.8637
-42.8649
-42.8673
-42.8716
-42.8782
-42.8881
-42.9073
-42.9777
-43.3739
-46.007
-42.5807
-42.58
-42.5786
-42.5766
-42.5741
-42.5713
-42.5681
-42.5645
-42.5596
-42.5507
-42.5306
-42.4804
-42.3402
-41.8151
-39.0142
-42.2977
-42.2964
-42.2938
-42.29
-42.285
-42.2789
-42.2717
-42.2627
-42.2506
-42.2309
-42.1932
-42.1158
-41.9701
-41.8364
-43.0116
-42.0155
-42.0135
-42.0097
-42.004
-41.9965
-41.9873
-41.9763
-41.9632
-41.9467
-41.9233
-41.8828
-41.7987
-41.5914
-40.9484
-38.3259
-41.7343
-41.7318
-41.7267
-41.7191
-41.7091
-41.6968
-41.6823
-41.666
-41.6478
-41.6272
-41.6019
-41.5669
-41.5153
-41.4347
-41.3233
-41.4548
-41.4516
-41.4452
-41.4356
-41.423
-41.4075
-41.3896
-41.3702
-41.3507
-41.3342
-41.3268
-41.3468
-41.4594
-41.942
-44.246
-41.1772
-41.1733
-41.1656
-41.154
-41.1387
-41.1198
-41.098
-41.0744
-41.0516
-41.0343
-41.032
-41.0622
-41.1464
-41.184
-39.9209
-40.9021
-40.8976
-40.8885
-40.8748
-40.8566
-40.834
-40.8075
-40.7783
-40.7487
-40.7239
-40.7136
-40.7402
-40.8658
-41.3287
-43.5723
-40.6299
-40.6247
-40.6143
-40.5986
-40.5774
-40.5507
-40.5189
-40.4823
-40.4427
-40.4029
-40.3686
-40.3495
-40.351
-40.2365
-38.6026
-40.3611
-40.3553
-40.3436
-40.3258
-40.3017
-40.271
-40.2334
-40.1887
-40.1369
-40.0779
-40.012
-39.9443
-39.9166
-40.1989
-42.6834
-40.096
-40.0897
-40.0768
-40.0572
-40.0303
-39.9958
-39.9527
-39.9001
-39.8361
-39.7573
-39.6555
-39.5115
-39.2669
-38.6317
-35.7528
-39.8351
-39.8283
-39.8145
-39.7933
-39.7642
-39.7263
-39.6786
-39.6194
-39.5459
-39.4524
-39.3273
-39.1484
-38.8885
-38.622
-39.5663
-39.5787
-39.5716
-39.557
-39.5346
-39.5038
-39.4635
-39.4125
-39.3488
-39.2695
-39.169
-39.0353
-38.8415
-38.5145
-37.7711
-35.2093
-39.327
-39.3197
-39.3047
-39.2816
-39.2497
-39.2079
-39.155
-39.0891
-39.008
-38.9082
-38.784
-38.6271
-38.4296
-38.1824
-37.9066
-39.0802
-39.0728
-39.0577
-39.0344
-39.0022
-38.9599
-38.9064
-38.8402
-38.7597
-38.664
-38.5541
-38.4409
-38.3793
-38.613
-40.4159
-38.8382
-38.8309
-38.8161
-38.7931
-38.7613
-38.7196
-38.6667
-38.6012
-38.5221
-38.4292
-38.3253
-38.219
-38.1238
-37.9532
-36.6677
-38.601
-38.594
-38.5797
-38.5577
-38.5271
-38.4868
-38.4356
-38.3718
-38.294
-38.2018
-38.0969
-37.9894
-37.9206
-38.0672
-39.5437
-38.3684
-38.3619
-38.3485
-38.3279
-38.2993
-38.2615
-38.2131
-38.1521
-38.0762
-37.9828
-37.8689
-37.7329
-37.5679
-37.2572
-35.7509
-38.1401
-38.1342
-38.122
-38.1034
-38.0775
-38.0433
-37.9993
-37.943
-37.8708
-37.7774
-37.6551
-37.4964
-37.3164
-37.2767
-38.6139
-37.9156
-37.9104
-37.8998
-37.8836
-37.8612
-37.8318
-37.7939
-37.7449
-37.6802
-37.5918
-37.4652
-37.2747
-36.9674
-36.3393
-34.21
-37.6945
-37.69
-37.6811
-37.6677
-37.6495
-37.626
-37.5963
-37.5579
-37.5063
-37.4323
-37.3183
-37.1342
-36.8411
-36.444
-36.5308
-37.4761
-37.4725
-37.4653
-37.4548
-37.4411
-37.4244
-37.4045
-37.3801
-37.348
-37.3001
-37.2187
-37.0693
-36.7872
-36.2119
-34.7298
-37.26
-37.2571
-37.2515
-37.2437
-37.2345
-37.2248
-37.2157
-37.2079
-37.2009
-37.1908
-37.1651
-37.0966
-36.9368
-36.609
-36.0897
-37.0456
-37.0432
-37.0388
-37.0333
-37.0279
-37.0246
-37.0259
-37.0352
-37.0562
-37.0917
-37.1397
-37.1872
-37.2029
-37.1386
-37.0932
-36.8325
-36.8304
-36.8267
-36.8225
-36.8196
-36.8209
-36.8305
-36.8545
-36.9016
-36.9835
-37.1133
-37.2999
-37.5247
-37.6542
-37.2843
-36.6205
-36.6183
-36.6146
-36.6104
-36.6082
-36.6112
-36.6249
-36.6578
-36.7229
-36.8414
-37.0461
-37.386
-37.9128
-38.5161
-38.0077
-36.4098
-36.4071
-36.4023
-36.3968
-36.3927
-36.3939
-36.4061
-36.4387
-36.5074
-36.6391
-36.8834
-37.3423
-38.2478
-40.1494
-44.3341
-36.2006
-36.197
-36.1903
-36.1817
-36.1734
-36.1687
-36.1729
-36.1948
-36.2483
-36.358
-36.5704
-36.9884
-37.8913
-40.1964
-47.6188
-49.3503
-41.6883
-39.2759
-38.3166
-37.8626
-37.6245
-37.4947
-37.4251
-37.3903
-37.3755
-37.3719
-37.3739
-37.3778
-37.3815
-37.3837
-46.3468
-41.6639
-39.6166
-38.6476
-38.1509
-37.8803
-37.7286
-37.6441
-37.5988
-37.5766
-37.5675
-37.5656
-37.5668
-37.5687
-37.57
-38.9965
-39.8085
-39.2088
-38.6504
-38.2809
-38.0529
-37.9158
-37.8359
-37.7913
-37.7682
-37.7579
-37.7547
-37.7548
-37.756
-37.7569
-38.6893
-38.9328
-38.7725
-38.522
-38.3116
-38.1617
-38.0635
-38.0032
-37.9687
-37.9509
-37.9432
-37.9411
-37.9418
-37.9432
-37.9442
-38.2172
-38.3367
-38.3991
-38.3656
-38.2988
-38.2342
-38.1849
-38.1527
-38.1345
-38.1262
-38.1241
-38.1254
-38.128
-38.1304
-38.1318
-37.1982
-37.7796
-38.0926
-38.2323
-38.2833
-38.2953
-38.2945
-38.2926
-38.2934
-38.297
-38.3024
-38.3084
-38.3139
-38.318
-38.3201
-36.2475
-37.4082
-37.9067
-38.1602
-38.2938
-38.3648
-38.4049
-38.4308
-38.4503
-38.4664
-38.4801
-38.4915
-38.5004
-38.5065
-38.5096
-37.3963
-37.4958
-37.8911
-38.1713
-38.3466
-38.4551
-38.5252
-38.5736
-38.6094
-38.6372
-38.659
-38.676
-38.6885
-38.6969
-38.701
-35.5785
-37.3775
-37.9556
-38.2551
-38.4446
-38.5717