/*--------------------------------*- C++ -*----------------------------------*\
| =========                 |                                                 |
| \\      /  F ield         | OpenFOAM: The Open Source CFD Toolbox           |
|  \\    /   O peration     | Version:  5.x                                   |
|   \\  /    A nd           | Web:      www.OpenFOAM.org                      |
|    \\/     M anipulation  |                                                 |
\*---------------------------------------------------------------------------*/
FoamFile
{
    version     2.0;
    format      ascii;
    class       volScalarField;
    location    "4.6";
    object      gradTy;
}
// * * * * * * * * * * * * * * * * * * * * * * * * * * * * * * * * * * * * * //

dimensions      [0 -1 0 1 0 0 0];

internalField   nonuniform List<scalar> 
6300
(
32274.5
32223.4
32172.3
32121.3
32070.4
32019.5
31968.8
31918.1
31867.7
31817.3
31767.2
31717.2
31667.4
31617.9
31568.6
-0.0139803
-0.0420036
-0.0702024
-0.0986553
-0.127372
-0.156268
-0.185147
-0.213687
-0.241448
-0.267905
-0.292508
-0.314795
-0.334528
-0.351845
-0.367394
-0.0232219
-0.0697975
-0.116721
-0.164141
-0.212099
-0.260482
-0.308973
-0.357033
-0.403893
-0.448605
-0.490135
-0.527554
-0.56029
-0.588438
-0.613037
-0.0323484
-0.09725
-0.16273
-0.229067
-0.29638
-0.36456
-0.433201
-0.501544
-0.568451
-0.632444
-0.691827
-0.744945
-0.790594
-0.828538
-0.860055
-0.0412765
-0.124138
-0.207901
-0.293038
-0.379818
-0.468205
-0.557758
-0.647525
-0.735965
-0.820941
-0.899832
-0.969857
-1.02866
-1.07514
-1.11049
-0.0498807
-0.150104
-0.251675
-0.355345
-0.461625
-0.570661
-0.682077
-0.794806
-0.906916
-1.01549
-1.11668
-1.20597
-1.27899
-1.33284
-1.36781
-0.058022
-0.174724
-0.293353
-0.415046
-0.540684
-0.670744
-0.805093
-0.942716
-1.08141
-1.21745
-1.34543
-1.45834
-1.5485
-1.60941
-1.63881
-0.0655098
-0.197423
-0.33198
-0.470815
-0.615337
-0.766559
-0.924854
-1.08958
-1.25857
-1.4275
-1.58924
-1.73347
-1.84726
-1.91745
-1.93579
-0.0721065
-0.217484
-0.366336
-0.520908
-0.6833
-0.855316
-1.0382
-1.23219
-1.4358
-1.64475
-1.85055
-2.03901
-2.18952
-2.27724
-2.28075
-0.0775398
-0.234073
-0.394976
-0.563188
-0.741648
-0.933214
-1.14045
-1.36518
-1.60768
-1.86512
-2.12916
-2.38239
-2.59446
-2.72107
-2.71316
-0.0815201
-0.246293
-0.416311
-0.595224
-0.786898
-0.99545
-1.2252
-1.48042
-1.76459
-2.07883
-2.41849
-2.7668
-3.08472
-3.29923
-3.3047
-0.0837683
-0.25327
-0.428754
-0.614506
-0.815276
-1.03649
-1.28449
-1.56668
-1.8914
-2.26706
-2.69904
-3.18147
-3.67822
-4.0863
-4.19168
-0.084052
-0.254267
-0.430934
-0.618777
-0.823213
-1.05076
-1.3096
-1.61037
-1.96721
-2.39889
-2.92902
-3.58169
-4.36029
-5.1761
-5.65947
-0.0822261
-0.248813
-0.421942
-0.606463
-0.808047
-1.03373
-1.29277
-1.59797
-1.96813
-2.43215
-3.03635
-3.85592
-5.00521
-6.59856
-8.37568
-0.0782667
-0.23682
-0.401564
-0.577093
-0.768791
-0.983372
-1.22975
-1.52058
-1.8751
-2.32511
-2.9282
-3.80044
-5.20633
-7.8376
-13.7903
31523.6
31482.9
31442.3
31402
31361.8
31321.8
31282.1
31242.5
31203.3
31164.2
31125.5
31087.1
31048.9
31011.1
30973.7
30936.6
30899.9
30863.5
30827.6
30792
30756.8
30722
30687.6
30653.6
30619.9
30586.7
30553.7
30521.1
30488.8
30456.9
30425.2
30393.9
30362.8
30331.9
30301.4
30271
30240.9
30211.1
30181.5
30152.1
30122.9
30093.9
30065.1
30036.6
30008.3
29980.2
29952.3
29924.6
29897.1
29869.8
29842.7
29815.8
29789.1
29762.6
29736.3
29710
29684
29658.1
29632.2
29606.5
29580.9
29555.4
29529.9
29504.5
29479.2
29453.9
29428.6
29403.3
29378.1
29352.8
29327.5
29302.2
29276.9
29251.6
29226.1
29200.7
29175.1
29149.4
29123.7
29097.9
29071.9
29045.8
29019.6
28993.2
28966.7
28940
28913.2
28886.2
28859
28831.6
-0.381117
-0.394279
-0.409227
-0.42704
-0.448619
-0.474516
-0.504824
-0.539119
-0.576502
-0.615714
-0.655305
-0.693824
-0.72998
-0.762742
-0.791368
-0.81537
-0.83444
-0.848378
-0.857046
-0.860364
-0.858343
-0.851129
-0.839037
-0.822556
-0.80232
-0.779061
-0.753561
-0.726611
-0.698988
-0.671439
-0.644669
-0.619305
-0.595863
-0.574711
-0.556052
-0.53994
-0.526312
-0.515041
-0.505979
-0.498969
-0.493835
-0.49033
-0.488088
-0.486593
-0.485183
-0.483097
-0.47956
-0.473877
-0.46552
-0.454183
-0.439794
-0.422493
-0.402578
-0.380454
-0.35658
-0.33144
-0.305518
-0.279271
-0.253104
-0.22733
-0.202143
-0.17761
-0.153681
-0.130229
-0.107104
-0.0841743
-0.0613586
-0.0386219
-0.0159549
0.00665767
0.0292583
0.0519178
0.0747137
0.0976972
0.120861
0.144127
0.167354
0.190372
0.213011
0.235128
0.256602
0.277308
0.297075
0.315644
0.332652
0.347638
0.360082
0.369469
0.375342
0.377362
-0.634251
-0.654476
-0.6777
-0.705989
-0.741095
-0.784133
-0.835332
-0.893935
-0.958257
-1.02593
-1.09424
-1.16051
-1.22243
-1.27824
-1.32675
-1.36726
-1.39938
-1.42285
-1.43743
-1.44295
-1.43936
-1.42685
-1.40593
-1.37746
-1.34257
-1.30257
-1.25882
-1.21267
-1.16544
-1.11842
-1.07281
-1.02972
-0.990068
-0.954493
-0.923317
-0.896567
-0.87406
-0.855517
-0.840667
-0.829278
-0.821122
-0.815869
-0.812961
-0.811527
-0.81039
-0.80815
-0.803361
-0.79473
-0.781289
-0.762507
-0.738305
-0.708992
-0.675156
-0.637545
-0.596978
-0.554301
-0.51036
-0.465967
-0.421848
-0.378572
-0.336481
-0.295661
-0.255968
-0.217111
-0.178765
-0.14067
-0.102689
-0.0648009
-0.0270365
0.0105951
0.0481634
0.0858194
0.123746
0.162077
0.200822
0.239833
0.27883
0.317475
0.35545
0.392521
0.428528
0.463331
0.496707
0.528259
0.557363
0.583187
0.604772
0.621152
0.631484
0.635162
-0.88591
-0.910228
-0.93875
-0.974991
-1.02202
-1.08186
-1.15504
-1.24037
-1.33505
-1.43509
-1.53596
-1.63332
-1.72355
-1.8041
-1.8735
-1.93109
-1.97664
-2.00996
-2.03072
-2.03852
-2.03308
-2.01452
-1.98353
-1.94145
-1.89004
-1.83133
-1.76737
-1.70012
-1.63146
-1.5632
-1.49715
-1.43503
-1.37824
-1.32778
-1.28405
-1.24693
-1.21594
-1.19052
-1.17021
-1.15477
-1.14408
-1.13788
-1.13556
-1.13589
-1.13703
-1.13672
-1.13255
-1.12236
-1.10461
-1.07849
-1.04403
-1.00186
-0.953033
-0.898753
-0.840276
-0.778849
-0.715721
-0.652135
-0.589247
-0.527978
-0.46886
-0.411962
-0.356926
-0.303135
-0.249943
-0.196881
-0.143769
-0.0906838
-0.037811
0.0147384
0.0670552
0.119443
0.172306
0.225969
0.280505
0.335663
0.390918
0.445641
0.49929
0.551538
0.602279
0.651496
0.699051
0.744479
0.786874
0.824917
0.857031
0.881619
0.897291
0.903056
-1.13653
-1.16007
-1.18884
-1.22863
-1.28466
-1.36056
-1.45746
-1.57357
-1.70435
-1.84327
-1.98301
-2.11667
-2.23888
-2.3463
-2.43755
-2.51258
-2.57184
-2.61548
-2.64302
-2.65351
-2.64606
-2.62044
-2.57752
-2.51926
-2.44842
-2.36806
-2.28108
-2.19005
-2.09732
-2.00524
-1.91631
-1.83309
-1.75779
-1.69186
-1.63575
-1.58893
-1.5503
-1.51866
-1.49325
-1.47394
-1.46105
-1.45483
-1.45484
-1.45958
-1.4663
-1.47138
-1.47091
-1.46142
-1.44047
-1.40702
-1.36137
-1.30485
-1.23926
-1.16651
-1.08833
-1.00634
-0.922232
-0.837784
-0.754796
-0.674758
-0.59851
-0.526039
-0.45654
-0.38874
-0.321367
-0.253588
-0.185224
-0.116665
-0.0485138
0.0188331
0.0854722
0.152019
0.219362
0.288262
0.358965
0.431034
0.503464
0.575058
0.644861
0.712452
0.777962
0.841801
0.904215
0.964836
1.02244
1.07497
1.11993
1.15473
1.17721
1.18581
-1.38729
-1.40231
-1.42299
-1.45879
-1.51862
-1.60896
-1.73215
-1.88557
-2.06185
-2.25024
-2.43874
-2.61645
-2.77547
-2.91175
-3.02489
-3.11673
-3.1895
-3.24416
-3.27985
-3.2943
-3.28515
-3.25127
-3.19358
-3.11516
-3.02049
-2.9143
-2.8006
-2.68242
-2.56224
-2.44272
-2.32725
-2.21976
-2.12383
-2.0418
-1.97405
-1.91916
-1.87458
-1.83782
-1.80751
-1.78389
-1.76845
-1.7628
-1.76736
-1.78043
-1.79794
-1.81404
-1.82229
-1.81699
-1.79436
-1.75313
-1.69441
-1.6209
-1.53585
-1.44211
-1.34188
-1.23694
-1.12926
-1.02137
-0.916129
-0.816114
-0.722753
-0.635866
-0.553737
-0.47376
-0.393406
-0.311163
-0.226988
-0.142084
-0.0580806
0.0239264
0.104004
0.183431
0.264161
0.347941
0.435446
0.525873
0.617204
0.707046
0.79361
0.876358
0.956043
1.03415
1.11195
1.18954
1.26528
1.33595
1.39743
1.4456
1.47709
1.48959
-1.6419
-1.63632
-1.6353
-1.65425
-1.70854
-1.80992
-1.96321
-2.16455
-2.40179
-2.65692
-2.90988
-3.14304
-3.34464
-3.5104
-3.64277
-3.74822
-3.83307
-3.90004
-3.94711
-3.96893
-3.95973
-3.91622
-3.83935
-3.73432
-3.60899
-3.47119
-3.32642
-3.17754
-3.02603
-2.8742
-2.72657
-2.58959
-2.46972
-2.37099
-2.29369
-2.23438
-2.18745
-2.14754
-2.11198
-2.08189
-2.06157
-2.05589
-2.06747
-2.09472
-2.13143
-2.16787
-2.19303
-2.19735
-2.17487
-2.12428
-2.04857
-1.95342
-1.84477
-1.72691
-1.60205
-1.47131
-1.33645
-1.20096
-1.06978
-0.947729
-0.837516
-0.738685
-0.647681
-0.559165
-0.468011
-0.371368
-0.269653
-0.166056
-0.0646251
0.0319455
0.12362
0.213112
0.304713
0.402398
0.507855
0.619543
0.73322
0.843881
0.947985
1.0448
1.13652
1.22706
1.32012
1.41701
1.51554
1.61027
1.69418
1.7606
1.80438
1.82227
-1.90846
-1.86361
-1.81865
-1.79859
-1.83034
-1.93583
-2.12471
-2.39146
-2.71562
-3.06636
-3.40913
-3.71467
-3.96502
-4.15667
-4.29896
-4.40889
-4.50193
-4.58406
-4.65024
-4.6877
-4.68318
-4.62867
-4.52511
-4.38213
-4.21489
-4.0375
-3.85756
-3.67583
-3.48967
-3.29902
-3.10989
-2.93414
-2.78449
-2.66867
-2.58676
-2.53107
-2.48952
-2.45032
-2.40784
-2.36514
-2.33287
-2.32342
-2.34429
-2.39468
-2.46457
-2.5372
-2.59304
-2.61558
-2.59512
-2.53087
-2.43001
-2.30464
-2.16623
-2.02108
-1.86997
-1.71088
-1.54384
-1.37363
-1.2096
-1.0616
-0.935203
-0.829552
-0.737368
-0.647703
-0.549866
-0.438231
-0.314394
-0.186291
-0.0635618
0.0476135
0.146966
0.240337
0.337069
0.446215
0.571831
0.710871
0.854086
0.990648
1.11333
1.22105
1.31914
1.41679
1.52318
1.64252
1.77165
1.90054
2.01647
2.10854
2.16925
2.1945
-2.20359
-2.09078
-1.96582
-1.86787
-1.84547
-1.94107
-2.1734
-2.535
-2.99044
-3.48653
-3.96118
-4.36497
-4.66905
-4.87313
-5.00082
-5.09293
-5.18547
-5.29
-5.39367
-5.46583
-5.47751
-5.4106
-5.26643
-5.06367
-4.83415
-4.6062
-4.38997
-4.1792
-3.95842
-3.72028
-3.47257
-3.2397
-3.0491
-2.91609
-2.84059
-2.80593
-2.7867
-2.75632
-2.70248
-2.63183
-2.56978
-2.5457
-2.57701
-2.66496
-2.79221
-2.9291
-3.03939
-3.09413
-3.07683
-2.98856
-2.84513
-2.67303
-2.49581
-2.32225
-2.14779
-1.96033
-1.75423
-1.53585
-1.32481
-1.14285
-1.00151
-0.899537
-0.821952
-0.746549
-0.650151
-0.52125
-0.363888
-0.197424
-0.0445261
0.0816119
0.180209
0.263978
0.352785
0.467522
0.617649
0.797327
0.985637
1.15847
1.30127
1.41218
1.50336
1.59488
1.70851
1.85482
2.02895
2.21026
2.37388
2.50233
2.58586
2.62104
-2.55986
-2.33509
-2.07374
-1.82799
-1.69024
-1.74886
-2.03531
-2.54267
-3.20594
-3.93671
-4.61444
-5.15795
-5.51617
-5.69861
-5.75292
-5.77526
-5.85066
-5.99603
-6.18131
-6.32981
-6.38377
-6.30254
-6.09083
-5.78241
-5.44976
-5.1566
-4.91308
-4.69551
-4.45064
-4.1538
-3.81232
-3.48283
-3.22919
-3.07905
-3.03395
-3.05688
-3.09824
-3.09442
-3.01958
-2.88439
-2.75027
-2.68644
-2.72639
-2.87684
-3.10412
-3.35749
-3.56392
-3.67459
-3.65889
-3.52385
-3.29969
-3.04694
-2.81828
-2.62289
-2.44249
-2.23482
-1.98047
-1.68568
-1.39636
-1.16381
-1.00935
-0.93267
-0.90167
-0.87392
-0.795546
-0.643578
-0.424834
-0.187403
0.0146342
0.156821
0.236326
0.281857
0.33263
0.439315
0.622327
0.87274
1.14082
1.37083
1.53637
1.63291
1.68829
1.74229
1.84789
2.02813
2.27696
2.54642
2.78283
2.96169
3.07288
3.12215
-3.03888
-2.63188
-2.15915
-1.63265
-1.25245
-1.22882
-1.57937
-2.32602
-3.32448
-4.46353
-5.4612
-6.21806
-6.61674
-6.70896
-6.55142
-6.3816
-6.41552
-6.64498
-7.02233
-7.3304
-7.48516
-7.38285
-7.05504
-6.53659
-6.00905
-5.63609
-5.39937
-5.25169
-5.01829
-4.65221
-4.13541
-3.61737
-3.26086
-3.09142
-3.12998
-3.28199
-3.47549
-3.53549
-3.42429
-3.13616
-2.83028
-2.67846
-2.71742
-2.9788
-3.37924
-3.85421
-4.22709
-4.4378
-4.41358
-4.1882
-3.7962
-3.38691
-3.09357
-2.90269
-2.7772
-2.57725
-2.26567
-1.82836
-1.38687
-1.07301
-0.905899
-0.900704
-0.977376
-1.07485
-1.04755
-0.862674
-0.513269
-0.126975
0.159436
0.32175
0.340826
0.291673
0.231468
0.300733
0.529513
0.922311
1.35045
1.67565
1.87048
1.91255
1.87484
1.81508
1.87945
2.1024
2.49498
2.92993
3.27441
3.51818
3.64876
3.72458
-3.75608
-3.0235
-2.32237
-1.22727
-0.30214
-0.171252
-0.554517
-1.74838
-3.24226
-5.19573
-6.65668
-7.79598
-8.1608
-8.08129
-7.37007
-6.6971
-6.70147
-7.08376
-7.96597
-8.5547
-8.95977
-8.79105
-8.29706
-7.30727
-6.34922
-5.92297
-5.76111
-5.93504
-5.78079
-5.37148
-4.46425
-3.5233
-3.02727
-2.80846
-3.06685
-3.45162
-4.0493
-4.22751
-4.08821
-3.41801
-2.693
-2.40042
-2.39283
-2.88521
-3.55176
-4.50268
-5.12857
-5.54407
-5.46274
-5.0973
-4.32244
-3.56471
-3.22613
-3.09311
-3.2239
-3.08515
-2.73664
-1.98174
-1.19825
-0.775463
-0.573826
-0.755345
-1.02758
-1.45982
-1.53075
-1.32294
-0.658967
0.073224
0.47898
0.689073
0.539771
0.313687
-0.0597635
-0.071068
0.197081
0.917696
1.70509
2.16515
2.42161
2.30415
2.09035
1.7064
1.68005
1.92987
2.64958
3.44136
3.90882
4.23554
4.30141
4.4672
-4.95855
-3.37034
-3.05321
-0.576962
1.79236
1.62725
1.63811
-0.738205
-2.49778
-6.63668
-8.31486
-10.4886
-10.3441
-10.3626
-8.13295
-6.03653
-6.44249
-6.80197
-9.33157
-10.0428
-11.2599
-10.6669
-10.2522
-8.03138
-5.92268
-5.82823
-5.63842
-7.09007
-6.9097
-6.8068
-4.84067
-2.78749
-2.39345
-1.8373
-2.82071
-3.31362
-5.22614
-5.3757
-5.51554
-3.77769
-1.93188
-1.71084
-1.34715
-2.53966
-3.31366
-5.61801
-6.33186
-7.36462
-6.91982
-6.59477
-4.82281
-3.13775
-3.0615
-2.90245
-4.05755
-3.89388
-3.79161
-2.1751
-0.489082
-0.158311
0.31116
-0.478181
-0.846162
-2.36389
-2.41416
-2.43893
-0.901807
0.744539
1.08132
1.57501
0.850376
0.54901
-0.871396
-0.84421
-0.785895
0.817867
2.532
2.94869
3.51208
2.8354
2.5518
1.08364
1.08386
1.08147
2.70114
4.42048
4.74656
5.32918
4.81093
5.44945
-7.53106
-1.88664
-6.8931
0.227443
7.53669
3.17281
7.26878
-0.615648
1.67347
-11.6206
-9.25885
-16.5191
-12.2921
-15.8809
-8.70324
-1.77186
-6.24977
-3.39444
-13.3149
-10.8018
-16.1658
-12.2852
-14.8073
-8.59323
-2.59474
-5.86989
-3.15111
-10.5943
-7.9261
-10.9242
-5.34144
0.338481
-1.99203
1.35188
-3.27987
-1.13031
-8.9406
-6.53681
-9.64568
-4.29173
1.17004
-1.22556
1.94059
-2.79563
-0.870704
-9.02252
-7.07475
-11.3117
-8.20327
-10.1746
-5.19687
-0.392923
-3.01488
-0.818212
-6.78901
-4.61301
-7.02589
-2.46737
2.17283
0.260291
3.00999
-0.806585
0.992056
-5.37991
-3.33311
-5.80287
-1.3008
3.30275
1.45884
4.21636
0.552591
2.39682
-3.76644
-1.66113
-3.99323
0.560104
5.22818
3.52195
6.38916
2.80154
4.71993
-1.65267
0.492265
-2.10181
2.60995
7.40667
5.21561
8.00878
3.65548
7.21317
-17.1249
14.9346
-28.1955
0.760126
30.0902
-7.46414
30.151
-15.1434
28.2842
-39.1496
3.65243
-39.0919
-2.98607
-36.9035
-8.91965
18.9214
-16.6178
18.4095
-35.2037
-0.218369
-34.3852
-4.68462
-31.9434
-8.84582
14.0862
-14.544
13.9684
-28.6602
-0.784159
-27.3996
-5.98335
14.9982
-9.76315
16.0247
-13.5055
15.3938
-27.3648
0.238821
-25.9638
-4.96259
15.585
-8.75078
16.6062
-12.6453
16.0812
-26.9721
1.0867
-25.8377
-2.17353
-23.7628
-5.32232
13.0435
-9.90874
13.0255
-21.2535
1.27422
-20.3006
-2.87886
14.2691
-6.0363
15.1626
-9.22244
14.5944
-20.5204
2.25027
-19.2076
-1.84729
15.1439
-4.79103
16.103
-7.67798
15.7741
-18.5694
3.9106
-17.1166
0.136039
17.1023
-2.49152
18.5601
-5.16192
18.8261
-16.655
6.72398
-15.8062
2.39567
20.4545
-1.49327
20.9786
-8.89252
13.8822
28801.3
28768
28734.4
28700.6
28666.6
28632.3
28597.9
28563.2
28528.4
28493.5
28458.5
28423.4
28388.2
28352.9
28317.6
0.375145
0.366944
0.353305
0.334854
0.3124
0.286818
0.258955
0.229561
0.199251
0.168489
0.137595
0.106764
0.076084
0.0455682
0.0151741
0.631521
0.617502
0.594099
0.562475
0.524096
0.480527
0.433259
0.383591
0.332562
0.280941
0.229243
0.177763
0.126624
0.0758166
0.0252438
0.897951
0.877454
0.843125
0.796856
0.740982
0.677935
0.609968
0.538987
0.466473
0.39348
0.32068
0.248429
0.176836
0.105834
0.0352306
1.17922
1.15115
1.10401
1.04077
0.964972
0.880202
0.789643
0.69588
0.600837
0.505809
0.411561
0.318433
0.22646
0.135452
0.0450773
1.48135
1.44392
1.381
1.29721
1.19791
1.08822
0.972487
0.854029
0.735166
0.617344
0.501306
0.387276
0.275115
0.164436
0.0547042
1.81196
1.76225
1.67887
1.56918
1.44121
1.30224
1.15801
1.01254
0.868432
0.727079
0.589031
0.454242
0.32228
0.192473
0.0640063
2.18124
2.1144
2.00321
1.85953
1.69557
1.52152
1.34469
1.16965
0.998901
0.833484
0.673481
0.518371
0.367285
0.219165
0.072853
2.60333
2.51129
2.36036
2.17045
1.96024
1.74371
1.52959
1.32241
1.12398
0.934439
0.753015
0.57846
0.409316
0.244044
0.0810911
3.09868
2.96756
2.75694
2.50211
2.23167
1.96382
1.70767
1.46645
1.24014
1.02724
0.825647
0.633119
0.447461
0.266596
0.088555
3.69934
3.50317
3.19764
2.8494
2.50089
2.17264
1.87111
1.59567
1.3429
1.10871
0.889187
0.680883
0.480798
0.286314
0.0950826
4.46716
4.14697
3.68007
3.19599
2.74961
2.35491
2.00867
1.70234
1.42712
1.1755
0.941492
0.72041
0.50852
0.30277
0.100541
5.55569
4.93796
4.18018
3.50417
2.94619
2.48872
2.10642
1.77801
1.48779
1.22468
0.980864
0.75073
0.530095
0.3157
0.10485
7.37859
5.86906
4.59971
3.69447
3.04214
2.54738
2.1504
1.81554
1.52136
1.25456
1.00655
0.771538
0.545419
0.325082
0.108009
10.8908
6.55921
4.65489
3.63175
2.98053
2.50839
2.13236
1.81247
1.52759
1.26564
1.01921
0.783442
0.554952
0.331194
0.11011
-0.0729348
-0.220609
-0.373797
-0.536542
-0.713505
-0.910364
-1.13444
-1.39577
-1.70907
-2.09779
-2.60317
-3.30715
-4.39804
-6.38468
-10.8734
-0.066704
-0.201638
-0.341215
-0.488755
-0.647945
-0.823022
-1.01901
-1.24199
-1.49938
-1.79973
-2.15066
-2.54765
-2.92295
-2.91183
-0.741873
-0.0594152
-0.179447
-0.303109
-0.432889
-0.571365
-0.721165
-0.884816
-1.06429
-1.25977
-1.4665
-1.66623
-1.80338
-1.71604
-0.937812
1.82692
-0.0512916
-0.154738
-0.260757
-0.370995
-0.486933
-0.609694
-0.739621
-0.875403
-1.01225
-1.13806
-1.22542
-1.21532
-0.988471
-0.343728
0.814367
-0.0425681
-0.128242
-0.215481
-0.305149
-0.397773
-0.493256
-0.59035
-0.685723
-0.772276
-0.836217
-0.852385
-0.778155
-0.550575
-0.106367
0.52656
-0.0334719
-0.100662
-0.168523
-0.237257
-0.306642
-0.375713
-0.442276
-0.502132
-0.547896
-0.567397
-0.542133
-0.447818
-0.262873
-0.00012381
0.199042
-0.0242054
-0.0726181
-0.12096
-0.168919
-0.215736
-0.259923
-0.29887
-0.328312
-0.341679
-0.329519
-0.279755
-0.18057
-0.0291015
0.150278
0.286292
-0.0149375
-0.0446218
-0.0736612
-0.101372
-0.126656
-0.147776
-0.162073
-0.165658
-0.153146
-0.117646
-0.0516115
0.0503414
0.185339
0.330822
0.419393
-0.00580064
-0.0170702
-0.0272806
-0.0355038
-0.0404625
-0.0403619
-0.032714
-0.0141878
0.0194409
0.0730946
0.151657
0.258326
0.392541
0.550923
0.75026
0.00310782
0.00975066
0.0177271
0.0281056
0.0422282
0.0618227
0.0890991
0.126796
0.178129
0.246579
0.335457
0.447215
0.583
0.742618
0.918408
0.0117221
0.0356515
0.0610753
0.0891254
0.121132
0.158688
0.203692
0.25832
0.324936
0.405905
0.503405
0.619455
0.756945
0.923119
1.14102
0.0200025
0.0605213
0.10261
0.14741
0.196196
0.250401
0.31162
0.381536
0.461789
0.553774
0.658503
0.776845
0.911004
1.06774
1.25543
0.0279288
0.0843086
0.142274
0.202942
0.267512
0.337265
0.41353
0.497595
0.590512
0.692816
0.804178
0.923295
1.04942
1.19091
1.39953
0.0354953
0.107003
0.180072
0.255781
0.335249
0.419627
0.51005
0.60753
0.712737
0.825592
0.944503
1.06493
1.17719
1.26752
1.36144
0.0427057
0.12862
0.216051
0.306028
0.399598
0.497816
0.601697
0.712126
0.829674
0.954188
1.08381
1.21229
1.32023
1.3417
1.00863
0.0495695
0.149194
0.250276
0.353797
0.460744
0.572101
0.688825
0.811808
0.941802
1.07926
1.22396
1.37396
1.52335
1.66213
1.82544
0.0560992
0.168763
0.282821
0.399207
0.518853
0.642688
0.771639
0.906655
1.04878
1.19934
1.36047
1.53612
1.73387
1.96561
2.22229
0.0623091
0.187371
0.313765
0.442375
0.574079
0.709753
0.850278
0.996603
1.14992
1.31211
1.48695
1.68301
1.92086
2.25185
2.81521
0.0682137
0.205065
0.343186
0.483415
0.626578
0.773483
0.924926
1.08174
1.24493
1.41613
1.59874
1.80094
2.04325
2.37679
2.92484
0.073827
0.221887
0.37116
0.522443
0.676509
0.834097
0.995885
1.16248
1.33442
1.51226
1.69697
1.8911
2.10235
2.35286
2.69277
0.079162
0.237876
0.397755
0.559561
0.724028
0.891832
1.06355
1.23955
1.41985
1.60367
1.78872
1.96946
2.13423
2.26695
2.41808
0.0842299
0.253067
0.42303
0.594859
0.769262
0.94689
1.12827
1.31369
1.50286
1.69427
1.88353
2.05901
2.18843
2.16836
1.58815
0.0890399
0.267486
0.44703
0.628396
0.812291
0.999382
1.19025
1.38527
1.58436
1.78641
1.98798
2.18064
2.34647
2.45886
2.56111
0.0935992
0.281156
0.469785
0.660207
0.853138
1.0493
1.24939
1.45406
1.66385
1.87892
2.09868
2.32102
2.5417
2.7565
2.96717
0.0979143
0.294091
0.491318
0.690304
0.891783
1.09653
1.30539
1.51936
1.73971
1.96822
2.20766
2.46265
2.74109
3.05711
3.4456
0.101991
0.306312
0.51165
0.718702
0.928201
1.14095
1.3579
1.58028
1.80995
2.04997
2.30592
2.58811
2.91447
3.30753
3.74345
0.105839
0.317839
0.530814
0.745433
0.962403
1.18251
1.40668
1.63621
1.87305
2.12071
2.38601
2.68301
3.04164
3.52832
4.30737
0.109466
0.328703
0.548861
0.770566
0.994472
1.22128
1.45181
1.6871
1.92869
2.17926
2.44418
2.73523
3.07997
3.54622
4.31156
0.112886
0.338943
0.565857
0.794205
1.02457
1.25753
1.4937
1.73368
1.97814
2.2279
2.4843
2.75031
3.034
3.35658
3.7523
0.116112
0.348602
0.581884
0.816482
1.0529
1.29161
1.53299
1.77721
2.02397
2.272
2.51781
2.75326
2.9611
3.11628
3.28011
0.11916
0.357725
0.597022
0.837529
1.07969
1.3239
1.57038
1.81902
2.06897
2.31767
2.55861
2.77553
2.92484
2.87013
2.07813
0.122042
0.366355
0.611348
0.857463
1.10512
1.35466
1.60632
1.85999
2.1149
2.36879
2.61619
2.84491
3.03031
3.13611
3.21252
0.124772
0.374528
0.62492
0.876368
1.12928
1.38403
1.64093
1.90016
2.16159
2.42447
2.68682
2.94452
3.19114
3.42264
3.65507
0.127359
0.382276
0.637788
0.894297
1.15221
1.41195
1.67399
1.93886
2.20733
2.48058
2.76074
3.052
3.36258
3.70867
4.1288
0.129814
0.389626
0.649992
0.911291
1.17392
1.43835
1.70514
1.97514
2.24982
2.53193
2.82704
3.14618
3.50946
3.94344
4.42639
0.132147
0.396609
0.661577
0.927399
1.19445
1.46317
1.73413
2.00825
2.2872
2.57432
2.87674
3.20987
3.60737
4.14437
5.00481
0.134369
0.403258
0.672598
0.942695
1.21387
1.48649
1.761
2.03808
2.31897
2.60616
2.90521
3.22901
3.6085
4.12086
4.97189
0.136493
0.409611
0.683122
0.957283
1.23235
1.50856
1.78614
2.06534
2.34642
2.62983
2.91659
3.20965
3.51747
3.86234
4.2754
0.138532
0.415709
0.693224
0.971288
1.25008
1.52973
1.81024
2.09136
2.37232
2.65122
2.92372
3.1802
3.40081
3.55664
3.71557
0.140497
0.42159
0.702976
0.984829
1.26728
1.55038
1.83398
2.11756
2.39971
2.67713
2.94206
3.17584
3.32919
3.24896
2.33841
0.142399
0.427286
0.712433
0.997996
1.28409
1.57074
1.85782
2.14482
2.43046
2.71176
2.98214
3.22751
3.41985
3.51803
3.57676
0.144246
0.432819
0.721633
1.01084
1.30056
1.59088
1.88179
2.1731
2.46427
2.75403
3.03968
3.31619
3.57598
3.81468
4.05293
0.146041
0.438202
0.730593
1.02337
1.31668
1.61068
1.90555
2.20155
2.49914
2.7992
3.10366
3.41666
3.74686
4.11178
4.5529
0.14779
0.443443
0.739318
1.03557
1.33237
1.62994
1.9286
2.22898
2.53235
2.84137
3.16178
3.50533
3.89377
4.35613
4.86932
0.149492
0.448547
0.747813
1.04744
1.34759
1.6485
1.95054
2.25443
2.56169
2.87571
3.20394
3.56299
3.98945
4.56538
5.4917
0.151153
0.453524
0.756089
1.05898
1.36234
1.66635
1.97126
2.2776
2.58643
2.90023
3.22481
3.57401
3.98145
4.53148
5.44984
0.152775
0.458384
0.764171
1.07025
1.37671
1.68363
1.99108
2.2991
2.60777
2.91734
3.2287
3.54477
3.87455
4.24197
4.68007
0.154361
0.463139
0.772084
1.08129
1.39081
1.70062
2.01058
2.32024
2.62856
2.93328
3.22941
3.5062
3.74159
3.90357
4.06555
0.155913
0.467797
0.779849
1.09216
1.40476
1.71758
2.03036
2.34236
2.65192
2.95525
3.24367
3.49654
3.65969
3.56534
2.56104
0.157431
0.472356
0.787469
1.10287
1.41861
1.73465
2.05075
2.36626
2.67968
2.98762
3.28272
3.54939
3.75667
3.85919
3.91615
0.15891
0.476804
0.79492
1.11339
1.43232
1.75175
2.07162
2.3917
2.7113
3.02895
3.34162
3.64365
3.92648
4.18485
4.4397
0.160343
0.481117
0.802158
1.12364
1.44573
1.7686
2.09244
2.41753
2.74433
3.07381
3.408
3.75141
4.11342
4.5131
4.99626
0.16172
0.485263
0.809122
1.13351
1.45866
1.78485
2.11248
2.44225
2.77559
3.11543
3.46808
3.84641
4.2743
4.78355
5.34806
0.16303
0.48921
0.81575
1.1429
1.47093
1.80016
2.13109
2.46459
2.80238
3.14824
3.51041
3.90716
4.37881
5.01582
6.04021
0.164263
0.492924
0.821986
1.15172
1.48241
1.81437
2.14801
2.48401
2.82366
3.16978
3.52883
3.91609
4.36859
4.97925
5.99662
0.165409
0.496377
0.827787
1.15993
1.49307
1.82747
2.16336
2.50096
2.8405
3.18241
3.52777
3.87988
4.24864
4.66044
5.15184
0.166459
0.499541
0.833112
1.16748
1.50291
1.83961
2.17761
2.51664
2.85578
3.19271
3.52213
3.83228
4.0989
4.28653
4.47548
0.167399
0.502383
0.837914
1.17434
1.51194
1.85091
2.1912
2.53231
2.87264
3.20829
3.52996
3.8151
4.00409
3.91186
2.81811
0.168217
0.504861
0.842129
1.18041
1.52007
1.86135
2.20432
2.54858
2.89281
3.23363
3.56328
3.86487
4.10462
4.23284
4.31531
0.168896
0.506925
0.845666
1.18559
1.52713
1.8707
2.2166
2.56495
2.91541
3.26679
3.61617
3.95777
4.28269
4.58576
4.89085
0.169414
0.508512
0.848416
1.18967
1.53283
1.87849
2.22727
2.57992
2.93743
3.30138
3.67454
4.06242
4.47604
4.93743
5.4987
0.169753
0.509555
0.850256
1.19247
1.53687
1.88417
2.23531
2.59158
2.95506
3.32961
3.72277
4.14935
4.63633
5.21989
5.87478
0.16989
0.509992
0.851071
1.1938
1.53892
1.88726
2.23988
2.59829
2.96506
3.34499
3.74787
4.19449
4.72967
5.45297
6.60645
0.169808
0.509768
0.850766
1.19352
1.5388
1.88744
2.24048
2.59928
2.96598
3.34448
3.74271
4.17828
4.69246
5.3875
6.53752
0.169493
0.508838
0.849269
1.19153
1.53638
1.88464
2.23715
2.59484
2.95877
3.33032
3.71172
4.10765
4.52976
5.00624
5.56982
0.168932
0.50717
0.846529
1.18777
1.53166
1.87894
2.23028
2.58613
2.94633
3.30939
3.67073
4.019
4.32937
4.56467
4.8114
0.168118
0.504737
0.84251
1.18221
1.52462
1.87048
2.22036
2.57445
2.93195
3.28969
3.63891
3.95684
4.18118
4.1153
2.98889
0.167043
0.50152
0.837175
1.17481
1.51525
1.85927
2.20757
2.56047
2.91745
3.27595
3.62892
3.95984
4.23457
4.40254
4.53544
0.165701
0.497499
0.83049
1.16551
1.50342
1.84516
2.19164
2.54373
2.90195
3.26609
3.6343
4.00201
4.36216
4.71427
5.09806
0.16409
0.492662
0.822423
1.15422
1.48899
1.8278
2.17188
2.52277
2.88239
3.25345
3.6401
4.04957
4.49544
5.00412
5.63243
0.162212
0.487013
0.812964
1.14091
1.4718
1.80682
2.14747
2.4958
2.85494
3.23002
3.63012
4.07197
4.58518
5.21103
5.94092
0.160077
0.480579
0.802146
1.12557
1.4518
1.782
2.11776
2.46138
2.81648
3.18926
3.59121
4.04495
4.5968
5.34581
6.52256
0.157706
0.473418
0.790058
1.10833
1.42907
1.75336
2.08265
2.41905
2.76579
3.12828
3.51642
3.94991
4.47157
5.18369
6.36387
0.155129
0.465626
0.776859
1.08939
1.40391
1.72129
2.04266
2.36958
2.70419
3.04954
3.4102
3.79376
4.21416
4.69666
5.24685
0.152391
0.457334
0.762777
1.06911
1.37681
1.68648
1.99887
2.31483
2.63518
2.9602
3.28816
3.61215
3.91367
4.16275
4.44123
0.149544
0.448705
0.748096
1.04791
1.34838
1.64984
1.95263
2.25706
2.56298
2.86883
3.16895
3.44628
3.64962
3.60853
2.63938
0.14665
0.439926
0.73314
1.02627
1.31931
1.61231
1.90531
2.19829
2.49086
2.78148
3.06563
3.3319
3.55536
3.69889
3.83034
0.143774
0.431201
0.718262
1.00471
1.2903
1.57481
1.85804
2.13985
2.42013
2.69864
2.97477
3.24734
3.51665
3.79773
4.17153
0.140987
0.42274
0.703826
0.98377
1.26207
1.53823
1.81179
2.08251
2.35065
2.61749
2.88643
3.16515
3.46981
3.83224
4.30513
0.138354
0.414752
0.690197
0.963993
1.23537
1.50349
1.76755
2.02701
2.28211
2.5349
2.79134
3.06502
3.38292
3.79012
4.33162
0.135941
0.407434
0.677728
0.945917
1.21095
1.4716
1.72655
1.97458
2.21519
2.44979
2.68431
2.93424
3.23407
3.65483
4.33543
0.1338
0.400956
0.666734
0.930053
1.18959
1.44369
1.69037
1.92734
2.15248
2.36476
2.56664
2.7689
3.00127
3.33917
4.00048
0.131968
0.395441
0.657459
0.916832
1.17202
1.42098
1.66095
1.88835
2.09871
2.28698
2.44873
2.58272
2.69523
2.79899
2.84812
0.13046
0.390942
0.65003
0.906529
1.1588
1.40451
1.64029
1.86122
2.06028
2.22765
2.35014
2.41154
2.39531
2.29681
2.19725
0.129259
0.387415
0.644408
0.899171
1.15015
1.39497
1.62994
1.84928
2.04389
2.19949
2.29401
2.29433
2.15255
1.79543
1.04061
0.128309
0.384701
0.640338
0.894448
1.14578
1.39228
1.63047
1.85454
2.05459
2.21376
2.30334
2.27587
2.05936
1.57028
0.80511
0.127517
0.382512
0.637333
0.891656
1.14478
1.39535
1.64081
1.87647
2.0937
2.27638
2.39401
2.38875
2.15547
1.53689
0.502404
0.126753
0.380446
0.634676
0.889696
1.14556
1.40198
1.65796
1.91122
2.15682
2.3842
2.57005
2.66005
2.5192
1.79235
-0.474963
0.125858
0.378009
0.631472
0.887145
1.14597
1.40891
1.67701
1.9513
2.23262
2.52091
2.81272
3.09171
3.28985
3.11756
1.2735
0.124661
0.374659
0.62673
0.882407
1.14349
1.41225
1.69177
1.98652
2.3036
2.65522
3.06439
3.5796
4.31766
5.60345
8.47042
8.30555
5.2929
3.98859
3.2644
2.7731
2.39129
2.0682
1.77989
1.51377
1.26256
1.0217
0.788138
0.55965
0.334516
0.111298
0.641408
2.6597
2.89714
2.74019
2.49654
2.23822
1.98245
1.73285
1.48951
1.25164
1.01826
0.788435
0.561301
0.336043
0.111892
-1.19783
1.26329
2.07952
2.27619
2.23019
2.0834
1.89244
1.68148
1.46147
1.2376
1.01234
0.786868
0.56165
0.336799
0.112232
-0.074032
1.00916
1.69212
1.98073
2.03387
1.95929
1.81635
1.63641
1.43613
1.22452
1.00658
0.785124
0.561745
0.33736
0.1125
0.194753
1.03295
1.57858
1.84883
1.92628
1.88268
1.76598
1.6055
1.41867
1.21586
1.00328
0.784718
0.562541
0.338252
0.112864
0.542029
1.25993
1.65629
1.85088
1.90279
1.85686
1.74604
1.59289
1.41232
1.21398
1.00413
0.786831
0.564809
0.339909
0.113465
1.53367
1.71025
1.87416
1.95208
1.94729
1.87615
1.7555
1.59935
1.41834
1.22012
1.01015
0.792237
0.569082
0.342643
0.114405
2.11504
2.16943
2.1518
2.11078
2.03793
1.92983
1.78963
1.62311
1.43631
1.23445
1.02171
0.801294
0.575644
0.346631
0.115744
3.17848
2.67867
2.44574
2.29168
2.1531
2.00585
1.84205
1.66098
1.46477
1.25636
1.03862
0.814002
0.584554
0.351927
0.117502
3.52307
3.00266
2.68497
2.4619
2.27434
2.09339
1.90649
1.70938
1.50173
1.28478
1.06031
0.830086
0.595683
0.358478
0.119667
3.64171
3.18595
2.85857
2.60755
2.39105
2.1851
1.97805
1.76515
1.54517
1.31846
1.08604
0.849089
0.608773
0.366153
0.122197
3.67889
3.28016
2.97919
2.7293
2.50049
2.27761
2.0537
1.82588
1.59331
1.35614
1.11493
0.870452
0.623477
0.374765
0.125034
3.64665
3.30654
3.06441
2.8365
2.60585
2.37087
2.13209
1.88994
1.6447
1.39665
1.14614
0.893571
0.639404
0.384096
0.128107
3.38243
3.26496
3.13983
2.94571
2.71427
2.46679
2.21285
1.95619
1.69808
1.43891
1.1788
0.917828
0.65614
0.393908
0.131341
2.36468
3.22879
3.26321
3.08092
2.8339
2.56722
2.29553
2.02348
1.75225
1.48188
1.21208