/*--------------------------------*- C++ -*----------------------------------*\
| =========                 |                                                 |
| \\      /  F ield         | OpenFOAM: The Open Source CFD Toolbox           |
|  \\    /   O peration     | Version:  5.x                                   |
|   \\  /    A nd           | Web:      www.OpenFOAM.org                      |
|    \\/     M anipulation  |                                                 |
\*---------------------------------------------------------------------------*/
FoamFile
{
    version     2.0;
    format      ascii;
    class       volScalarField;
    location    "4.6";
    object      T;
}
// * * * * * * * * * * * * * * * * * * * * * * * * * * * * * * * * * * * * * //

dimensions      [0 0 0 1 0 0 0];

internalField   nonuniform List<scalar> 
6300
(
322.745
322.234
321.724
321.214
320.704
320.196
319.688
319.182
318.677
318.174
317.673
317.173
316.675
316.18
315.687
322.745
322.234
321.723
321.213
320.703
320.195
319.687
319.181
318.676
318.172
317.671
317.171
316.673
316.178
315.684
322.744
322.233
321.722
321.212
320.702
320.193
319.685
319.178
318.673
318.169
317.667
317.167
316.669
316.173
315.68
322.744
322.232
321.721
321.21
320.699
320.19
319.681
319.174
318.668
318.163
317.661
317.16
316.662
316.166
315.672
322.744
322.231
321.719
321.207
320.696
320.185
319.676
319.168
318.661
318.156
317.653
317.152
316.653
316.156
315.662
322.743
322.23
321.717
321.204
320.692
320.18
319.67
319.161
318.653
318.147
317.643
317.141
316.641
316.144
315.65
322.743
322.228
321.714
321.2
320.687
320.174
319.662
319.152
318.643
318.136
317.631
317.128
316.627
316.13
315.635
322.742
322.226
321.711
321.196
320.681
320.167
319.654
319.142
318.631
318.123
317.616
317.112
316.61
316.112
315.617
322.741
322.224
321.707
321.191
320.674
320.159
319.644
319.13
318.618
318.107
317.599
317.093
316.59
316.091
315.596
322.741
322.222
321.703
321.185
320.667
320.15
319.633
319.117
318.603
318.09
317.579
317.071
316.567
316.067
315.572
322.74
322.22
321.699
321.179
320.659
320.14
319.621
319.103
318.586
318.07
317.556
317.045
316.538
316.037
315.542
322.739
322.217
321.695
321.173
320.651
320.13
319.608
319.088
318.567
318.048
317.531
317.016
316.505
316.001
315.506
322.738
322.214
321.691
321.167
320.643
320.119
319.595
319.072
318.548
318.025
317.502
316.982
316.465
315.955
315.458
322.737
322.212
321.686
321.161
320.635
320.109
319.582
319.055
318.528
318
317.472
316.944
316.418
315.897
315.392
322.737
322.209
321.682
321.155
320.627
320.099
319.57
319.04
318.509
317.976
317.441
316.905
316.365
315.823
315.291
315.237
314.83
314.425
314.021
313.619
313.22
312.822
312.427
312.035
311.644
311.257
310.873
310.492
310.114
309.739
309.369
309.001
308.638
308.278
307.923
307.571
307.223
306.879
306.539
306.202
305.869
305.54
305.214
304.891
304.571
304.254
303.941
303.63
303.321
303.015
302.712
302.411
302.113
301.816
301.522
301.23
300.941
300.653
300.368
300.084
299.803
299.524
299.247
298.972
298.7
298.429
298.16
297.893
297.627
297.364
297.102
296.841
296.581
296.323
296.066
295.81
295.554
295.3
295.046
294.792
294.539
294.286
294.033
293.781
293.528
293.275
293.022
292.769
292.515
292.261
292.006
291.75
291.494
291.236
290.978
290.718
290.457
290.195
289.931
289.666
289.399
289.131
288.86
288.589
288.315
315.235
314.827
314.422
314.018
313.616
313.217
312.819
312.424
312.031
311.64
311.253
310.868
310.487
310.109
309.734
309.363
308.996
308.632
308.273
307.917
307.565
307.217
306.873
306.533
306.197
305.864
305.535
305.209
304.886
304.567
304.25
303.937
303.626
303.317
303.012
302.709
302.408
302.109
301.813
301.519
301.227
300.937
300.65
300.364
300.081
299.8
299.521
299.244
298.969
298.697
298.426
298.157
297.89
297.625
297.361
297.099
296.839
296.58
296.322
296.064
295.808
295.553
295.299
295.045
294.791
294.538
294.286
294.033
293.781
293.528
293.275
293.023
292.769
292.516
292.262
292.007
291.751
291.495
291.238
290.979
290.72
290.459
290.197
289.933
289.668
289.401
289.133
288.863
288.591
288.317
315.23
314.822
314.416
314.012
313.61
313.21
312.812
312.416
312.023
311.632
311.244
310.859
310.477
310.099
309.724
309.352
308.985
308.621
308.261
307.906
307.554
307.206
306.862
306.522
306.186
305.854
305.525
305.199
304.877
304.558
304.242
303.928
303.618
303.31
303.004
302.701
302.401
302.102
301.806
301.512
301.22
300.931
300.643
300.358
300.075
299.794
299.515
299.238
298.963
298.691
298.42
298.151
297.885
297.62
297.357
297.095
296.835
296.576
296.318
296.061
295.806
295.551
295.297
295.043
294.79
294.537
294.285
294.032
293.78
293.528
293.276
293.023
292.77
292.517
292.263
292.009
291.754
291.498
291.241
290.983
290.723
290.463
290.201
289.938
289.673
289.406
289.138
288.868
288.596
288.322
315.222
314.814
314.408
314.004
313.602
313.201
312.802
312.406
312.012
311.62
311.231
310.845
310.462
310.083
309.708
309.336
308.968
308.604
308.244
307.888
307.536
307.189
306.845
306.506
306.17
305.838
305.509
305.185
304.863
304.544
304.229
303.916
303.606
303.298
302.993
302.691
302.39
302.092
301.796
301.502
301.211
300.921
300.634
300.348
300.065
299.784
299.505
299.228
298.954
298.681
298.411
298.143
297.877
297.612
297.349
297.088
296.829
296.57
296.313
296.057
295.802
295.547
295.294
295.04
294.788
294.535
294.284
294.032
293.78
293.528
293.276
293.024
292.772
292.519
292.266
292.012
291.757
291.501
291.245
290.987
290.728
290.468
290.207
289.944
289.679
289.413
289.145
288.875
288.604
288.33
315.212
314.804
314.398
313.993
313.59
313.189
312.789
312.392
311.996
311.603
311.213
310.826
310.443
310.062
309.686
309.314
308.945
308.581
308.221
307.865
307.513
307.166
306.823
306.483
306.148
305.817
305.489
305.165
304.844
304.526
304.212
303.9
303.59
303.283
302.979
302.676
302.376
302.079
301.783
301.489
301.198
300.908
300.621
300.335
300.052
299.771
299.492
299.215
298.941
298.669
298.399
298.131
297.866
297.602
297.34
297.079
296.82
296.563
296.306
296.051
295.796
295.543
295.289
295.037
294.785
294.533
294.282
294.031
293.78
293.528
293.277
293.026
292.774
292.522
292.269
292.016
291.762
291.507
291.251
290.994
290.735
290.476
290.215
289.952
289.688
289.423
289.155
288.886
288.614
288.34
315.199
314.791
314.384
313.979
313.576
313.174
312.773
312.374
311.977
311.583
311.191
310.803
310.418
310.036
309.659
309.286
308.916
308.552
308.191
307.835
307.484
307.136
306.794
306.455
306.121
305.791
305.464
305.141
304.821
304.504
304.19
303.879
303.571
303.265
302.961
302.659
302.359
302.062
301.766
301.473
301.181
300.892
300.604
300.319
300.036
299.754
299.476
299.199
298.925
298.653
298.384
298.117
297.852
297.589
297.328
297.068
296.81
296.554
296.298
296.043
295.79
295.537
295.284
295.033
294.781
294.53
294.28
294.029
293.779
293.529
293.278
293.027
292.776
292.525
292.273
292.02
291.767
291.513
291.258
291.002
290.744
290.485
290.225
289.963
289.7
289.435
289.168
288.898
288.627
288.354
315.184
314.776
314.369
313.964
313.56
313.157
312.755
312.354
311.955
311.558
311.165
310.774
310.387
310.004
309.626
309.251
308.881
308.516
308.155
307.799
307.447
307.101
306.759
306.421
306.088
305.759
305.433
305.111
304.793
304.478
304.165
303.855
303.548
303.242
302.939
302.638
302.339
302.042
301.747
301.453
301.162
300.873
300.585
300.3
300.016
299.735
299.456
299.179
298.905
298.634
298.365
298.099
297.835
297.573
297.313
297.055
296.798
296.542
296.288
296.035
295.782
295.53
295.278
295.027
294.777
294.527
294.277
294.028
293.778
293.529
293.279
293.029
292.779
292.529
292.278
292.026
291.774
291.521
291.267
291.011
290.754
290.497
290.237
289.976
289.714
289.449
289.183
288.914
288.644
288.37
315.166
314.758
314.352
313.946
313.542
313.138
312.734
312.331
311.929
311.53
311.133
310.74
310.351
309.966
309.586
309.211
308.84
308.474
308.112
307.756
307.404
307.058
306.717
306.381
306.049
305.721
305.397
305.077
304.76
304.447
304.136
303.827
303.521
303.217
302.915
302.614
302.315
302.019
301.724
301.431
301.14
300.851
300.563
300.277
299.993
299.711
299.432
299.155
298.881
298.611
298.343
298.078
297.815
297.554
297.296
297.039
296.783
296.529
296.277
296.024
295.773
295.522
295.271
295.021
294.772
294.523
294.274
294.026
293.778
293.529
293.281
293.032
292.782
292.533
292.283
292.033
291.782
291.53
291.277
291.022
290.767
290.51
290.251
289.992
289.73
289.467
289.201
288.934
288.663
288.39
315.146
314.739
314.333
313.928
313.523
313.118
312.712
312.306
311.901
311.497
311.096
310.7
310.308
309.921
309.54
309.163
308.791
308.424
308.062
307.705
307.354
307.008
306.668
306.333
306.004
305.678
305.356
305.038
304.723
304.412
304.103
303.796
303.492
303.189
302.887
302.587
302.289
301.993
301.698
301.406
301.116
300.826
300.538
300.252
299.967
299.684
299.404
299.127
298.853
298.583
298.317
298.053
297.792
297.533
297.276
297.02
296.767
296.515
296.264
296.013
295.763
295.513
295.264
295.015
294.766
294.518
294.271
294.024
293.777
293.53
293.282
293.034
292.786
292.538
292.289
292.04
291.791
291.541
291.289
291.036
290.781
290.525
290.268
290.009
289.749
289.487
289.223
288.957
288.687
288.414
315.122
314.716
314.312
313.909
313.505
313.099
312.69
312.28
311.87
311.46
311.054
310.653
310.257
309.869
309.486
309.109
308.736
308.368
308.004
307.646
307.295
306.95
306.612
306.279
305.952
305.629
305.31
304.994
304.681
304.372
304.066
303.763
303.46
303.159
302.858
302.558
302.26
301.964
301.67
301.379
301.089
300.8
300.512
300.224
299.937
299.652
299.371
299.093
298.82
298.551
298.286
298.024
297.765
297.508
297.253
297
296.748
296.499
296.25
296.002
295.753
295.504
295.255
295.007
294.759
294.513
294.267
294.022
293.777
293.531
293.284
293.037
292.789
292.542
292.295
292.049
291.802
291.553
291.303
291.051
290.797
290.542
290.286
290.029
289.771
289.511
289.249
288.984
288.715
288.443
315.095
314.692
314.291
313.891
313.489
313.083
312.671
312.255
311.837
311.418
311.004
310.597
310.197
309.807
309.425
309.048
308.674
308.304
307.938
307.579
307.226
306.882
306.546
306.218
305.895
305.575
305.258
304.944
304.634
304.329
304.027
303.727
303.427
303.127
302.827
302.526
302.227
301.931
301.638
301.348
301.061
300.773
300.484
300.194
299.905
299.617
299.332
299.053
298.78
298.513
298.251
297.992
297.735
297.48
297.227
296.976
296.727
296.481
296.236
295.99
295.743
295.495
295.246
294.997
294.75
294.505
294.263
294.02
293.777
293.533
293.287
293.04
292.793
292.546
292.302
292.058
291.814
291.568
291.32
291.068
290.815
290.56
290.305
290.05
289.795
289.538
289.279
289.016
288.748
288.477
315.061
314.664
314.269
313.876
313.48
313.074
312.659
312.234
311.803
311.371
310.945
310.528
310.125
309.734
309.355
308.981
308.608
308.235
307.864
307.5
307.145
306.802
306.471
306.149
305.832
305.516
305.202
304.889
304.581
304.279
303.984
303.69
303.395
303.097
302.795
302.492
302.19
301.893
301.601
301.316
301.032
300.746
300.457
300.164
299.87
299.575
299.286
299.004
298.732
298.467
298.21
297.957
297.703
297.45
297.197
296.948
296.703
296.462
296.222
295.98
295.735
295.486
295.235
294.985
294.738
294.495
294.257
294.02
293.78
293.537
293.291
293.043
292.794
292.548
292.306
292.067
291.829
291.587
291.34
291.089
290.834
290.578
290.323
290.071
289.821
289.57
289.314
289.054
288.788
288.517
315.02
314.631
314.245
313.867
313.483
313.079
312.66
312.22
311.772
311.314
310.871
310.441
310.034
309.646
309.277
308.914
308.54
308.163
307.779
307.407
307.047
306.706
306.38
306.072
305.768
305.456
305.143
304.825
304.519
304.221
303.937
303.656
303.367
303.071
302.765
302.457
302.146
301.846
301.556
301.28
301.007
300.725
300.436
300.136
299.834
299.527
299.23
298.942
298.671
298.411
298.164
297.921
297.671
297.418
297.162
296.914
296.673
296.442
296.212
295.975
295.732
295.48
295.225
294.968
294.719
294.479
294.249
294.022
293.787
293.547
293.298
293.046
292.791
292.545
292.306
292.076
291.848
291.611
291.368
291.114
290.856
290.594
290.338
290.088
289.848
289.607
289.357
289.101
288.834
288.566
314.962
314.596
314.208
313.865
313.516
313.107
312.692
312.219
311.753
311.238
310.778
310.318
309.918
309.527
309.192
308.86
308.479
308.099
307.677
307.299
306.92
306.589
306.265
305.988
305.713
305.4
305.089
304.747
304.443
304.143
303.887
303.635
303.347
303.06
302.739
302.426
302.086
301.785
301.491
301.24
300.994
300.712
300.43
300.113
299.803
299.463
299.16
298.857
298.593
298.335
298.114
297.894
297.642
297.392
297.116
296.87
296.627
296.419
296.213
295.977
295.741
295.476
295.219
294.938
294.69
294.447
294.239
294.034
293.802
293.569
293.308
293.054
292.777
292.531
292.29
292.084
291.879
291.646
291.41
291.146
290.885
290.6
290.345
290.092
289.875
289.658
289.409
289.161
288.884
288.626
314.869
314.594
314.107
313.871
313.634
313.143
312.806
312.208
311.805
311.082
310.686
310.11
309.788
309.328
309.103
308.878
308.415
308.095
307.513
307.191
306.724
306.461
306.084
305.9
305.716
305.339
305.08
304.613
304.36
304.003
303.831
303.663
303.327
303.098
302.7
302.435
301.967
301.716
301.363
301.194
301.03
300.7
300.475
300.081
299.816
299.346
299.088
298.716
298.507
298.207
298.06
297.913
297.61
297.402
297.026
296.822
296.532
296.392
296.255
295.98
295.792
295.463
295.245
294.86
294.653
294.363
294.223
294.088
293.816
293.631
293.309
293.094
292.716
292.512
292.226
292.087
291.952
291.682
291.496
291.17
290.951
290.561
290.348
290.046
289.9
289.755
289.461
289.261
288.908
288.71
288.012
287.679
287.343
287.005
286.665
286.322
285.978
285.632
285.284
284.935
284.585
284.233
283.881
283.529
283.176
288.014
287.681
287.345
287.007
286.667
286.324
285.979
285.633
285.285
284.936
284.585
284.234
283.882
283.529
283.177
288.019
287.686
287.35
287.012
286.671
286.328
285.983
285.636
285.288
284.938
284.587
284.236
283.883
283.53
283.177
288.027
287.693
287.357
287.018
286.677
286.334
285.988
285.641
285.292
284.941
284.59
284.238
283.885
283.531
283.177
288.037
287.703
287.367
287.027
286.686
286.341
285.995
285.647
285.297
284.946
284.594
284.24
283.887
283.532
283.177
288.05
287.716
287.379
287.039
286.696
286.351
286.004
285.655
285.304
284.952
284.598
284.244
283.889
283.534
283.178
288.067
287.732
287.394
287.053
286.71
286.363
286.014
285.664
285.312
284.958
284.604
284.248
283.892
283.535
283.179
288.087
287.752
287.413
287.071
286.725
286.377
286.027
285.675
285.321
284.966
284.61
284.253
283.896
283.537
283.179
288.11
287.775
287.435
287.091
286.743
286.394
286.041
285.687
285.332
284.975
284.617
284.259
283.899
283.54
283.18
288.139
287.802
287.46
287.114
286.764
286.412
286.058
285.701
285.344
284.985
284.625
284.265
283.904
283.542
283.181
288.172
287.834
287.49
287.141
286.788
286.433
286.076
285.717
285.357
284.996
284.634
284.271
283.908
283.545
283.182
288.213
287.872
287.524
287.171
286.814
286.456
286.095
285.733
285.371
285.007
284.643
284.278
283.913
283.548
283.183
288.262
287.917
287.563
287.205
286.843
286.48
286.116
285.751
285.385
285.019
284.653
284.286
283.919
283.551
283.184
288.324
287.971
287.608
287.241
286.873
286.505
286.137
285.769
285.4
285.031
284.662
284.293
283.924
283.554
283.185
288.409
288.034
287.655
287.278
286.904
286.531
286.159
285.787
285.416
285.044
284.673
284.301
283.929
283.558
283.186
322.736
322.207
321.679
321.15
320.62
320.09
319.559
319.026
318.492
317.955
317.416
316.871
316.318
315.747
315.131
322.735
322.206
321.676
321.145
320.614
320.083
319.55
319.015
318.479
317.939
317.396
316.846
316.287
315.71
315.095
322.735
322.204
321.673
321.142
320.609
320.076
319.542
319.005
318.467
317.925
317.38
316.829
316.269
315.699
315.119
322.734
322.203
321.671
321.138
320.605
320.071
319.535
318.997
318.458
317.915
317.368
316.816
316.259
315.694
315.125
322.734
322.201
321.669
321.135
320.601
320.066
319.529
318.991
318.45
317.907
317.359
316.808
316.253
315.693
315.132
322.734
322.2
321.667
321.133
320.598
320.062
319.525
318.986
318.445
317.901
317.354
316.803
316.249
315.693
315.134
322.733
322.2
321.666
321.131
320.596
320.06
319.522
318.983
318.441
317.897
317.35
316.801
316.248
315.693
315.136
322.733
322.199
321.665
321.13
320.595
320.058
319.52
318.98
318.439
317.895
317.349
316.8
316.249
315.695
315.139
322.733
322.199
321.665
321.13
320.594
320.057
319.519
318.98
318.438
317.895
317.35
316.802
316.251
315.699
315.143
322.733
322.199
321.665
321.13
320.594
320.057
319.52
318.98
318.439
317.896
317.352
316.805
316.256
315.704
315.151
322.733
322.199
321.665
321.13
320.595
320.058
319.521
318.982
318.441
317.899
317.355
316.809
316.261
315.711
315.158
322.733
322.2
321.666
321.131
320.596
320.06
319.523
318.985
318.445
317.903
317.36
316.815
316.268
315.72
315.17
322.733
322.2
321.667
321.133
320.598
320.063
319.526
318.988
318.449
317.908
317.366
316.822
316.276
315.729
315.179
322.734
322.201
321.668
321.135
320.601
320.066
319.53
318.993
318.455
317.915
317.373
316.83
316.286
315.74
315.194
322.734
322.202
321.67
321.137
320.604
320.07
319.534
318.998
318.461
317.922
317.382
316.84
316.296
315.75
315.201
322.734
322.203
321.672
321.14
320.607
320.074
319.54
319.005
318.468
317.931
317.392
316.851
316.308
315.762
315.211
322.735
322.204
321.674
321.143
320.611
320.079
319.546
319.012
318.477
317.94
317.402
316.863
316.321
315.778
315.232
322.735
322.206
321.676
321.146
320.616
320.085
319.553
319.02
318.486
317.951
317.414
316.876
316.337
315.795
315.248
322.736
322.208
321.679
321.15
320.621
320.091
319.56
319.028
318.496
317.962
317.427
316.891
316.353
315.815
315.279
322.736
322.209
321.682
321.154
320.626
320.098
319.568
319.038
318.507
317.974
317.441
316.906
316.371
315.834
315.296
322.737
322.211
321.685
321.159
320.632
320.105
319.577
319.048
318.518
317.987
317.455
316.922
316.388
315.854
315.324
322.738
322.213
321.689
321.164
320.638
320.112
319.586
319.059
318.53
318.001
317.471
316.939
316.406
315.872
315.337
322.739
322.216
321.692
321.169
320.645
320.121
319.596
319.07
318.543
318.015
317.487
316.957
316.425
315.89
315.35
322.739
322.218
321.696
321.174
320.652
320.129
319.606
319.082
318.557
318.031
317.504
316.975
316.445
315.913
315.379
322.74
322.22
321.7
321.18
320.659
320.138
319.616
319.094
318.571
318.047
317.522
316.995
316.467
315.936
315.4
322.741
322.223
321.704
321.186
320.667
320.147
319.627
319.107
318.586
318.064
317.541
317.016
316.491
315.964
315.437
322.742
322.225
321.709
321.192
320.675
320.157
319.639
319.12
318.601
318.081
317.56
317.038
316.516
315.992
315.462
322.743
322.228
321.713
321.198
320.683
320.167
319.651
319.134
318.617
318.099
317.58
317.061
316.542
316.023
315.509
322.744
322.231
321.718
321.205
320.691
320.177
319.663
319.148
318.633
318.117
317.601
317.084
316.567
316.051
315.534
322.745
322.234
321.723
321.211
320.7
320.188
319.676
319.163
318.65
318.136
317.622
317.107
316.592
316.079
315.571
322.746
322.237
321.728
321.218
320.709
320.199
319.689
319.178
318.667
318.155
317.643
317.13
316.616
316.103
315.589
322.747
322.24
321.733
321.225
320.718
320.21
319.702
319.193
318.684
318.175
317.664
317.153
316.641
316.127
315.606
322.748
322.243
321.738
321.233
320.727
320.222
319.716
319.209
318.702
318.195
317.686
317.177
316.667
316.155
315.642
322.749
322.246
321.743
321.24
320.737
320.233
319.729
319.225
318.72
318.215
317.709
317.202
316.694
316.184
315.667
322.75
322.249
321.748
321.247
320.746
320.245
319.743
319.241
318.739
318.236
317.732
317.228
316.723
316.217
315.711
322.751
322.252
321.754
321.255
320.756
320.257
319.758
319.258
318.758
318.257
317.756
317.255
316.753
316.249
315.74
322.752
322.256
321.759
321.263
320.766
320.269
319.772
319.275
318.777
318.279
317.78
317.282
316.783
316.286
315.794
322.753
322.259
321.765
321.271
320.776
320.282
319.787
319.292
318.796
318.301
317.805
317.309
316.813
316.318
315.823
322.754
322.262
321.771
321.279
320.787
320.295
319.802
319.309
318.816
318.323
317.829
317.335
316.842
316.35
315.866
322.755
322.266
321.777
321.287
320.797
320.307
319.817
319.327
318.836
318.345
317.853
317.362
316.869
316.377
315.885
322.757
322.27
321.782
321.295
320.808
320.32
319.833
319.345
318.856
318.367
317.878
317.388
316.897
316.404
315.905
322.758
322.273
321.788
321.304
320.819
320.334
319.848
319.363
318.877
318.39
317.903
317.415
316.926
316.436
315.945
322.759
322.277
321.794
321.312
320.83
320.347
319.864
319.381
318.897
318.413
317.929
317.443
316.957
316.468
315.972
322.76
322.28
321.801
321.321
320.841
320.36
319.88
319.399
318.918
318.437
317.955
317.472
316.989
316.504
316.021
322.761
322.284
321.807
321.329
320.852
320.374
319.896
319.418
318.939
318.461
317.981
317.502
317.022
316.54
316.053
322.763
322.288
321.813
321.338
320.863
320.388
319.912
319.437
318.961
318.485
318.008
317.532
317.055
316.581
316.112
322.764
322.292
321.819
321.347
320.875
320.402
319.929
319.456
318.983
318.509
318.035
317.561
317.088
316.616
316.144
322.765
322.296
321.826
321.356
320.886
320.416
319.946
319.475
319.004
318.533
318.062
317.591
317.12
316.651
316.19
322.766
322.299
321.832
321.365
320.898
320.43
319.963
319.495
319.026
318.558
318.089
317.62
317.15
316.681
316.212
322.768
322.303
321.839
321.374
320.909
320.445
319.98
319.514
319.049
318.583
318.116
317.649
317.181
316.711
316.233
322.769
322.307
321.845
321.383
320.921
320.459
319.997
319.534
319.071
318.608
318.144
317.679
317.213
316.745
316.277
322.77
322.311
321.852
321.393
320.933
320.474
320.014
319.554
319.094
318.633
318.172
317.71
317.246
316.78
316.307
322.772
322.315
321.859
321.402
320.945
320.489
320.032
319.574
319.117
318.659
318.2
317.742
317.282
316.821
316.36
322.773
322.319
321.866
321.412
320.958
320.504
320.049
319.595
319.14
318.685
318.23
317.774
317.318
316.86
316.396
322.774
322.323
321.872
321.421
320.97
320.519
320.067
319.615
319.163
318.711
318.259
317.807
317.355
316.904
316.461
322.776
322.328
321.879
321.431
320.982
320.534
320.085
319.636
319.187
318.738
318.288
317.839
317.39
316.943
316.496
322.777
322.332
321.886
321.441
320.995
320.549
320.103
319.657
319.211
318.764
318.318
317.871
317.425
316.982
316.547
322.779
322.336
321.893
321.45
321.007
320.564
320.121
319.678
319.235
318.791
318.347
317.903
317.459
317.015
316.571
322.78
322.34
321.9
321.46
321.02
320.58
320.14
319.699
319.259
318.818
318.377
317.935
317.492
317.047
316.594
322.781
322.344
321.907
321.47
321.033
320.595
320.158
319.721
319.283
318.845
318.407
317.967
317.527
317.085
316.643
322.783
322.349
321.914
321.48
321.046
320.611
320.177
319.742
319.307
318.872
318.437
318.001
317.564
317.123
316.675
322.784
322.353
321.921
321.49
321.058
320.627
320.195
319.764
319.332
318.9
318.468
318.035
317.602
317.167
316.734
322.786
322.357
321.928
321.5
321.071
320.643
320.214
319.785
319.357
318.928
318.499
318.07
317.641
317.21
316.773
322.787
322.361
321.935
321.51
321.084
320.658
320.233
319.807
319.381
318.956
318.53
318.105
317.681
317.258
316.844
322.789
322.366
321.943
321.52
321.097
320.674
320.251
319.829
319.406
318.984
318.561
318.14
317.719
317.3
316.882
322.79
322.37
321.95
321.53
321.11
320.69
320.27
319.85
319.431
319.011
318.592
318.174
317.756
317.342
316.937
322.791
322.374
321.957
321.539
321.122
320.705
320.288
319.872
319.455
319.039
318.623
318.207
317.791
317.376
316.962
322.793
322.378
321.964
321.549
321.135
320.721
320.307
319.893
319.479
319.066
318.653
318.239
317.826
317.41
316.987
322.794
322.382
321.971
321.559
321.148
320.736
320.325
319.914
319.504
319.093
318.683
318.273
317.862
317.45
317.038
322.795
322.386
321.978
321.569
321.16
320.752
320.343
319.935
319.528
319.12
318.713
318.306
317.899
317.489
317.072
322.797
322.391
321.984
321.578
321.172
320.767
320.361
319.956
319.552
319.147
318.744
318.34
317.937
317.533
317.132
322.798
322.395
321.991
321.588
321.185
320.782
320.379
319.977
319.575
319.174
318.774
318.374
317.975
317.576
317.171
322.8
322.399
321.998
321.597
321.197
320.796
320.397
319.997
319.599
319.201
318.804
318.408
318.013
317.622
317.241
322.801
322.402
322.004
321.606
321.208
320.811
320.414
320.017
319.621
319.226
318.832
318.44
318.049
317.662
317.277
322.802
322.406
322.011
321.615
321.22
320.825
320.431
320.037
319.644
319.251
318.86
318.471
318.084
317.7
317.328
322.803
322.41
322.017
321.624
321.231
320.839
320.447
320.056
319.665
319.276
318.887
318.5
318.115
317.731
317.351
322.805
322.414
322.023
321.633
321.242
320.853
320.463
320.074
319.686
319.299
318.913
318.528
318.144
317.761
317.372
322.806
322.417
322.029
321.641
321.253
320.866
320.479
320.093
319.707
319.322
318.938
318.556
318.174
317.793
317.415
322.807
322.421
322.035
321.649
321.264
320.879
320.494
320.11
319.727
319.344
318.963
318.582
318.203
317.824
317.442
322.808
322.424
322.041
321.658
321.274
320.892
320.509
320.127
319.746
319.366
318.986
318.608
318.232
317.857
317.487
322.809
322.428
322.047
321.665
321.285
320.904
320.524
320.144
319.765
319.387
319.009
318.633
318.259
317.887
317.514
322.81
322.431
322.052
321.673
321.295
320.916
320.538
320.16
319.783
319.407
319.031
318.657
318.286
317.918
317.559
322.812
322.435
322.058
321.681
321.304
320.928
320.552
320.176
319.801
319.426
319.052
318.68
318.309
317.943
317.58
322.813
322.438
322.063
321.689
321.314
320.94
320.566
320.192
319.818
319.445
319.072
318.7
318.331
317.965
317.606
322.814
322.441
322.069
321.696
321.324
320.951
320.579
320.207
319.835
319.463
319.091
318.72
318.349
317.981
317.617
322.815
322.444
322.074
321.704
321.333
320.963
320.593
320.222
319.852
319.481
319.11
318.739
318.366
317.994
317.624
322.816
322.448
322.079
321.711
321.343
320.975
320.606
320.238
319.869
319.5
319.13
318.758
318.384
318.007
317.631
322.817
322.451
322.085
321.718
321.352
320.986
320.62
320.254
319.887
319.519
319.15
318.778
318.402
318.02
317.632
322.818
322.454
322.09
321.726
321.362
320.998
320.634
320.27
319.905
319.54
319.172
318.802
318.426
318.037
317.623
322.819
322.457
322.095
321.733
321.371
321.01
320.648
320.286
319.924
319.561
319.197
318.83
318.457
318.072
317.653
288.531
288.096
287.697
287.311
286.931
286.553
286.178
285.804
285.43
285.056
284.682
284.308
283.935
283.561
283.187
288.559
288.128
287.726
287.336
286.953
286.573
286.195
285.818
285.442
285.066
284.691
284.315
283.939
283.564
283.188
288.541
288.141
287.745
287.356
286.972
286.591
286.211
285.832
285.454
285.077
284.699
284.321
283.944
283.566
283.189
288.539
288.149
287.76
287.374
286.99
286.608
286.226
285.846
285.466
285.087
284.707
284.328
283.949
283.569
283.19
288.54
288.157
287.773
287.389
287.006
286.623
286.241
285.86
285.478
285.097
284.716
284.335
283.953
283.572
283.191
288.542
288.166
287.786
287.405
287.022
286.639
286.256
285.873
285.49
285.107
284.724
284.341
283.958
283.575
283.192
288.549
288.178
287.801
287.42
287.038
286.654
286.27
285.886
285.502
285.117
284.733
284.348
283.963
283.578
283.193
288.568
288.195
287.818
287.437
287.054
286.67
286.285
285.9
285.514
285.127
284.741
284.354
283.967
283.581
283.194
288.584
288.215
287.837
287.455
287.072
286.687
286.3
285.913
285.526
285.138
284.75
284.361
283.972
283.583
283.194
288.621
288.24
287.858
287.475
287.09
286.704
286.316
285.927
285.538
285.148
284.758
284.368
283.977
283.586
283.195
288.643
288.265
287.882
287.496
287.11
286.721
286.332
285.942
285.551
285.159
284.767
284.375
283.982
283.589
283.196
288.681
288.293
287.906
287.519
287.13
286.74
286.349
285.957
285.564
285.17
284.776
284.382
283.987
283.592
283.198
288.704
288.319
287.931
287.542
287.151
286.759
286.366
285.972
285.577
285.182
284.786
284.389
283.993
283.596
283.199
288.742
288.348
287.957
287.566
287.173
286.78
286.384
285.988
285.591
285.194
284.795
284.397
283.998
283.599
283.2
288.761
288.374
287.984
287.591
287.197
286.8
286.403
286.005
285.606
285.206
284.805
284.405
284.004
283.602
283.201
288.781
288.402
288.012
287.617
287.221
286.822
286.423
286.022
285.62
285.218
284.816
284.413
284.009
283.606
283.202
288.828
288.436
288.043
287.645
287.246
286.845
286.443
286.04
285.636
285.231
284.826
284.421
284.015
283.609
283.203
288.861
288.473
288.076
287.675
287.272
286.869
286.464
286.058
285.651
285.244
284.837
284.429
284.021
283.613
283.204
288.926
288.516
288.111
287.706
287.3
286.893
286.485
286.077
285.668
285.258
284.848
284.438
284.027
283.616
283.205
288.962
288.555
288.146
287.737
287.328
286.917
286.507
286.096
285.684
285.272
284.859
284.446
284.033
283.62
283.207
289.018
288.597
288.182
287.769
287.356
286.943
286.529
286.115
285.701
285.286
284.871
284.455
284.04
283.624
283.208
289.05
288.633
288.216
287.8
287.384
286.968
286.552
286.135
285.718
285.3
284.882
284.464
284.046
283.628
283.209
289.098
288.671
288.25
287.831
287.413
286.994
286.574
286.155
285.735
285.315
284.894
284.473
284.053
283.632
283.211
289.121
288.703
288.283
287.862
287.441
287.019
286.597
286.175
285.752
285.329
284.906
284.483
284.059
283.636
283.212
289.146
288.736
288.316
287.894
287.47
287.045
286.621
286.195
285.77
285.344
284.918
284.492
284.066
283.64
283.213
289.198
288.775
288.352
287.926
287.499
287.072
286.644
286.216
285.787
285.359
284.93
284.501
284.073
283.644
283.215
289.235
288.816
288.389
287.959
287.529
287.098
286.667
286.236
285.805
285.374
284.942
284.511
284.079
283.648
283.216
289.303
288.862
288.427
287.993
287.559
287.125
286.691
286.257
285.823
285.389
284.955
284.52
284.086
283.652
283.217
289.341
288.903
288.464
288.026
287.589
287.152
286.715
286.278
285.841
285.404
284.967
284.53
284.093
283.656
283.219
289.398
288.946
288.501
288.059
287.619
287.179
286.739
286.299
285.859
285.419
284.98
284.54
284.1
283.66
283.22
289.43
288.983
288.536
288.092
287.648
287.205
286.762
286.32
285.877
285.434
284.992
284.549
284.107
283.664
283.221
289.477
289.02
288.57
288.123
287.677
287.231
286.786
286.34
285.895
285.45
285.004
284.559
284.114
283.668
283.223
289.499
289.051
288.603
288.154
287.706
287.257
286.809
286.361
285.913
285.465
285.017
284.569
284.12
283.672
283.224
289.522
289.083
288.635
288.185
287.734
287.283
286.833
286.382
285.931
285.48
285.029
284.578
284.127
283.676
283.225
289.572
289.12
288.669
288.216
287.763
287.309
286.856
286.402
285.949
285.495
285.042
284.588
284.134
283.681
283.227
289.605
289.158
288.703
288.248
287.792
287.336
286.879
286.423
285.967
285.51
285.054
284.598
284.141
283.685
283.228
289.667
289.2
288.739
288.28
287.821
287.362