/*--------------------------------*- C++ -*----------------------------------*\
| =========                 |                                                 |
| \\      /  F ield         | OpenFOAM: The Open Source CFD Toolbox           |
|  \\    /   O peration     | Version:  5.x                                   |
|   \\  /    A nd           | Web:      www.OpenFOAM.org                      |
|    \\/     M anipulation  |                                                 |
\*---------------------------------------------------------------------------*/
FoamFile
{
    version     2.0;
    format      ascii;
    class       volScalarField;
    location    "0.2";
    object      gradTy;
}
// * * * * * * * * * * * * * * * * * * * * * * * * * * * * * * * * * * * * * //

dimensions      [0 -1 0 1 0 0 0];

internalField   nonuniform List<scalar> 
6300
(
32262.4
32187.3
32112.5
32037.9
31963.9
31890.4
31817.7
31746
31675.3
31605.8
31537.6
31471
31405.9
31342.7
31281.4
-0.0980183
-0.294619
-0.492876
-0.69375
-0.897948
-1.10583
-1.31727
-1.53161
-1.74746
-1.96272
-2.17457
-2.37951
-2.57368
-2.7531
-2.91415
-0.162706
-0.489123
-0.818458
-1.15241
-1.4923
-1.83884
-2.19198
-2.55068
-2.91273
-3.27462
-3.63149
-3.97734
-4.30533
-4.60838
-4.88
-0.226366
-0.680606
-1.13926
-1.60495
-2.07975
-2.56496
-3.06076
-3.56598
-4.07768
-4.59095
-5.0988
-5.5923
-6.06106
-6.49419
-6.88156
-0.288483
-0.867554
-1.45284
-2.0481
-2.65644
-3.28001
-3.91959
-4.57415
-5.2403
-5.91185
-6.57951
-7.23092
-7.85121
-8.42439
-8.93536
-0.348435
-1.04814
-1.75621
-2.47781
-3.21744
-3.97848
-4.76278
-5.56993
-6.39656
-7.23554
-8.07523
-8.89925
-9.68693
-10.4151
-11.0614
-0.405497
-1.22017
-2.04573
-2.88908
-3.75645
-4.65301
-5.58226
-6.5452
-7.53929
-8.5571
-9.585
-10.6021
-11.5801
-12.4856
-13.2847
-0.458831
-1.38111
-2.31714
-3.27585
-4.26565
-5.29406
-6.36706
-7.48814
-8.65687
-9.86693
-11.1037
-12.3418
-13.5434
-14.66
-15.6387
-0.507474
-1.52805
-2.56549
-3.63098
-4.73551
-5.88957
-7.10261
-8.38202
-9.73143
-11.1481
-12.6189
-14.1154
-15.5891
-16.9693
-18.1712
-0.550404
-1.65787
-2.78536
-3.94646
-5.15501
-6.42505
-7.77049
-9.2043
-10.7369
-12.3729
-14.1058
-15.9092
-17.7253
-19.4536
-20.9539
-0.586594
-1.76739
-2.97116
-4.21383
-5.51215
-6.884
-8.34857
-9.92608
-11.6368
-13.4983
-15.5194
-17.6875
-19.946
-22.1623
-24.1019
-0.61509
-1.85365
-3.11761
-4.42486
-5.7948
-7.24903
-8.81218
-10.5128
-12.3837
-14.4618
-16.7834
-19.372
-22.2052
-25.1434
-27.8118
-0.635121
-1.91422
-3.22027
-4.57251
-5.9922
-7.50385
-9.13676
-10.9272
-12.9213
-15.179
-17.7773
-20.8084
-24.3554
-28.389
-32.4448
-0.646198
-1.94757
-3.27627
-4.65196
-6.09664
-7.63612
-9.30219
-11.1359
-13.193
-15.5532
-18.3354
-21.7252
-26.0141
-31.607
-38.6409
-0.648211
-1.95331
-3.28482
-4.66172
-6.10528
-7.6405
-9.29835
-11.1193
-13.1596
-15.5026
-18.2826
-21.739
-26.3634
-33.3782
-46.6441
31227
31179
31132.5
31087.5
31044.1
31002.4
30962.2
30923.6
30886.7
30851.4
30817.7
30785.5
30755
30725.9
30698.4
30672.3
30647.6
30624.2
30602.1
30581.3
30561.7
30543.2
30525.8
30509.4
30493.9
30479.3
30465.6
30452.6
30440.4
30428.8
30417.9
30407.5
30397.6
30388.3
30379.3
30370.8
30362.6
30354.7
30347.1
30339.7
30332.5
30325.5
30318.6
30311.8
30305.1
30298.3
30291.6
30284.8
30278
30271
30263.9
30256.6
30249.1
30241.3
30233.3
30224.9
30216.1
30206.9
30197.2
30187.1
30176.3
30165
30153
30140.3
30126.9
30112.6
30097.5
30081.4
30064.3
30046.2
30026.9
30006.5
29984.9
29962
29937.7
29912
29884.9
29856.2
29826
29794.2
29760.8
29725.7
29688.9
29650.5
29610.4
29568.5
29525
29479.9
29433.1
29384.8
-3.04228
-3.14273
-3.22653
-3.29353
-3.34395
-3.37824
-3.39689
-3.4004
-3.38918
-3.3636
-3.32407
-3.27108
-3.20535
-3.1278
-3.03958
-2.94203
-2.8366
-2.72477
-2.60798
-2.48758
-2.36484
-2.24087
-2.11667
-1.99314
-1.87104
-1.75103
-1.63362
-1.51923
-1.40816
-1.30061
-1.1967
-1.09646
-0.999845
-0.906769
-0.817075
-0.730562
-0.646991
-0.566098
-0.487599
-0.411199
-0.336597
-0.263481
-0.191529
-0.120408
-0.049773
0.0207294
0.091453
0.162746
0.234945
0.308367
0.383312
0.460059
0.53887
0.619992
0.703655
0.790071
0.879434
0.971917
1.06767
1.16681
1.26943
1.3756
1.48533
1.59854
1.71512
1.83481
1.95728
2.08206
2.20857
2.33612
2.46389
2.59091
2.7161
2.83822
2.95587
3.06757
3.17171
3.2667
3.35092
3.42283
3.48094
3.52381
3.55008
3.55844
3.54772
3.51692
3.4654
3.39293
3.29985
3.18705
-5.09544
-5.26375
-5.4036
-5.5149
-5.59824
-5.65456
-5.68489
-5.69009
-5.67083
-5.62761
-5.56096
-5.47159
-5.36061
-5.22957
-5.08046
-4.91563
-4.7376
-4.54895
-4.35216
-4.14955
-3.9432
-3.73499
-3.52661
-3.31952
-3.115
-2.91415
-2.71782
-2.5267
-2.34128
-2.16186
-1.98862
-1.82161
-1.66075
-1.50587
-1.35671
-1.2129
-1.07404
-0.939674
-0.809314
-0.682467
-0.558629
-0.437285
-0.3179
-0.199917
-0.0827558
0.0341819
0.151498
0.269783
0.389604
0.511496
0.635955
0.763445
0.894402
1.02924
1.16833
1.31205
1.46071
1.6146
1.77398
1.93906
2.11001
2.28693
2.46988
2.65879
2.85344
3.05346
3.25829
3.46716
3.67911
3.89298
4.10742
4.32085
4.53145
4.73716
4.93562
5.12427
5.30039
5.46122
5.60403
5.72622
5.82531
5.89892
5.94475
5.96056
5.94422
5.89393
5.80837
5.68704
5.5304
5.34
-7.18737
-7.42493
-7.6209
-7.77563
-7.8905
-7.96739
-8.00813
-8.01409
-7.98609
-7.92455
-7.82982
-7.7026
-7.54427
-7.35698
-7.14373
-6.90804
-6.65379
-6.38483
-6.10479
-5.81698
-5.52437
-5.22955
-4.93487
-4.6424
-4.35393
-4.07099
-3.79479
-3.52624
-3.26599
-3.01445
-2.77181
-2.53812
-2.31325
-2.09695
-1.8888
-1.68829
-1.49478
-1.30762
-1.12609
-0.949507
-0.777159
-0.608339
-0.442308
-0.278283
-0.115439
0.0470848
0.210159
0.374638
0.541331
0.710993
0.884316
1.06194
1.24447
1.43247
1.6265
1.82706
2.03462
2.24958
2.4723
2.70308
2.94218
3.18981
3.44608
3.71097
3.98423
4.2654
4.55368
4.848
5.14702
5.44913
5.75247
6.05487
6.35383
6.64643
6.92933
7.19878
7.45078
7.6813
7.88637
8.06233
8.20573
8.31333
8.38187
8.4081
8.38873
8.32077
8.20192
8.03103
7.80855
7.53666
-9.33584
-9.6442
-9.89575
-10.0918
-10.2355
-10.3304
-10.3795
-10.3851
-10.3478
-10.2674
-10.1437
-9.97683
-9.76813
-9.5205
-9.23813
-8.92621
-8.59033
-8.23594
-7.868
-7.49087
-7.1083
-6.7236
-6.33972
-5.95933
-5.58477
-5.21804
-4.86067
-4.51381
-4.17818
-3.85423
-3.54215
-3.24195
-2.95347
-2.67633
-2.40996
-2.15363
-1.90645
-1.66749
-1.4358
-1.21048
-0.99064
-0.775403
-0.563845
-0.354964
-0.147671
0.0591903
0.266801
0.476312
0.6888
0.905242
1.12651
1.35341
1.58669
1.82709
2.07532
2.33206
2.59792
2.87344
3.15905
3.45515
3.76211
4.08026
4.40988
4.75105
5.1036
5.46698
5.84021
6.22189
6.61023
7.0032
7.39846
7.79336
8.18479
8.56902
8.94162
9.2975
9.63112
9.93685
10.2094
10.4439
10.6362
10.7823
10.8782
10.9194
10.9013
10.8189
10.6683
10.4473
10.1558
9.79682
-11.5626
-11.9433
-12.2484
-12.4815
-12.6488
-12.7571
-12.8118
-12.8159
-12.7695
-12.671
-12.5181
-12.3096
-12.0466
-11.7327
-11.3739
-10.9779
-10.5527
-10.1058
-9.64389
-9.17214
-8.69499
-8.21624
-7.7394
-7.26776
-6.80431
-6.35158
-5.91148
-5.48527
-5.07367
-4.67704
-4.29551
-3.92906
-3.57748
-3.24031
-2.91679
-2.60589
-2.30637
-2.01697
-1.73642
-1.46362
-1.19754
-0.937196
-0.681537
-0.429352
-0.17926
0.0702538
0.320758
0.573769
0.830666
1.09265
1.36073
1.63584
1.91882
2.21059
2.51206
2.82412
3.14755
3.48298
3.83092
4.19182
4.56615
4.95445
5.35725
5.77494
6.20754
6.65453
7.11469
7.5862
8.06678
8.55388
9.0448
9.53658
10.0257
10.5078
10.9774
11.4275
11.8507
12.2391
12.5858
12.8849
13.1316
13.3218
13.4513
13.5144
13.5042
13.413
13.234
12.9626
12.5981
12.144
-13.8948
-14.3486
-14.7022
-14.9633
-15.1445
-15.2586
-15.315
-15.3176
-15.2648
-15.1513
-14.971
-14.7197
-14.3972
-14.0084
-13.5624
-13.0708
-12.5455
-11.997
-11.4336
-10.861
-10.2839
-9.70612
-9.13167
-8.56453
-8.00859
-7.46715
-6.94251
-6.43593
-5.94786
-5.47837
-5.02743
-4.59503
-4.18102
-3.7849
-3.40569
-3.04196
-2.69196
-2.35387
-2.02606
-1.70722
-1.3963
-1.09235
-0.794309
-0.500781
-0.21005
0.0798793
0.371113
0.66566
0.965268
1.27134
1.58496
1.90704
2.23847
2.58032
2.93377
3.30003
3.68012
4.07476
4.4844
4.90942
5.35035
5.80801
6.28342
6.77758
7.29098
7.82327
8.37295
8.93752
9.51392
10.099
10.6897
11.2833
11.8763
12.4642
13.0403
13.5955
14.1192
14.6004
15.0296
15.3998
15.7066
15.9472
16.1179
16.2127
16.2215
16.1315
15.9304
15.6099
15.1674
14.6071
-16.3695
-16.8955
-17.2863
-17.5578
-17.7345
-17.841
-17.8936
-17.8974
-17.8462
-17.7271
-17.5257
-17.2317
-16.843
-16.3665
-15.8167
-15.2124
-14.572
-13.9103
-13.2368
-12.5569
-11.8742
-11.1919
-10.5141
-9.8459
-9.19275
-8.55927
-7.94826
-7.36063
-6.79599
-6.25365
-5.73329
-5.23512
-4.75936
-4.30567
-3.87282
-3.45874
-3.06081
-2.67635
-2.30314
-1.93972
-1.58527
-1.23925
-0.900754
-0.568323
-0.239782
0.0875736
0.416685
0.75029
1.09063
1.43926
1.79716
2.16496
2.54337
2.93361
3.33735
3.75637
4.19213
4.64536
5.11618
5.60456
6.11093
6.63649
7.18312
7.75299
8.34772
8.96742
9.61017
10.2722
10.9489
11.6361
12.3308
13.0309
13.7343
14.4374
15.1329
15.8084
16.4482
17.0357
17.5573
18.0047
18.3757
18.6714
18.8925
19.0332
19.0792
19.008
18.7972
18.4311
17.9045
17.223
-19.0404
-19.634
-20.0394
-20.286
-20.4227
-20.4981
-20.54
-20.5537
-20.5229
-20.4197
-20.2121
-19.879
-19.4144
-18.8296
-18.1492
-17.4056
-16.6294
-15.8407
-15.0495
-14.2575
-13.4646
-12.6718
-11.8834
-11.1063
-10.3493
-9.6198
-8.92111
-8.25299
-7.61272
-6.99795
-6.40786
-5.84357
-5.30654
-4.79698
-4.31344
-3.85273
-3.41072
-2.98303
-2.56649
-2.15959
-1.76241
-1.37552
-0.998663
-0.63041
-0.267909
0.0926823
0.45577
0.825257
1.20411
1.59395
1.99528
2.40778
2.83149
3.26778
3.71923
4.18901
4.67939
5.19108
5.72314
6.27429
6.84443
7.43513
8.04988
8.69312
9.36902
10.0789
10.8201
11.5861
12.369
13.1627
13.9642
14.7736
15.5926
16.4215
17.2535
18.0721
18.8518
19.5647
20.1902
20.7182
21.1514
21.5011
21.7803
21.988
22.1029
22.0832
21.8849
21.4807
20.8621
20.0388
-21.9908
-22.6396
-23.0176
-23.1687
-23.1952
-23.1996
-23.2229
-23.2702
-23.3
-23.2586
-23.0754
-22.7124
-22.1557
-21.4279
-20.5705
-19.644
-18.703
-17.7735
-16.8624
-15.9586
-15.0543
-14.1451
-13.2361
-12.3377
-11.4663
-10.636
-9.85009
-9.10542
-8.39295
-7.70693
-7.04554
-6.41296
-5.81438
-5.25104
-4.72138
-4.21999
-3.74016
-3.27379
-2.8161
-2.36553
-1.92478
-1.49736
-1.0842
-0.684202
-0.293249
0.0942598
0.485738
0.886862
1.30192
1.7323
2.17753
2.63473
3.10177
3.58042
4.07507
4.59237
5.13635
5.70791
6.3031
6.91715
7.54879
8.19962
8.87609
9.58668
10.3418
11.1455
11.9946
12.8759
13.7736
14.6783
15.5859
16.502
17.4359
18.4003
19.3922
20.3908
21.3497
22.2176
22.9614
23.5654
24.0443
24.429
24.7676
25.0721
25.3161
25.4113
25.2644
24.8344
24.1096
23.118
-25.3603
-26.0305
-26.3171
-26.2254
-25.9944
-25.8693
-25.867
-26.0085
-26.1763
-26.2991
-26.1956
-25.8229
-25.1423
-24.212
-23.0905
-21.903
-20.7596
-19.68
-18.6648
-17.6608
-16.6517
-15.6187
-14.5744
-13.5309
-12.5252
-11.5889
-10.7206
-9.9123
-9.1359
-8.38123
-7.64249
-6.9341
-6.27214
-5.6572
-5.08915
-4.55674
-4.05072
-3.5525
-3.05584
-2.55769
-2.06824
-1.59891
-1.15093
-0.725091
-0.313709
0.0900779
0.501812
0.928441
1.37776
1.84941
2.34277
2.84777
3.35567
3.87041
4.39874
4.95781
5.55416
6.19127
6.85652
7.53537
8.22622
8.92793
9.65388
10.4168
11.2454
12.1473
13.1236
14.1427
15.1686
16.1901
17.1958
18.2049
19.2351
20.3392
21.5207
22.7655
23.9774
25.0475
25.9322
26.5903
27.0701
27.4202
27.8003
28.2397
28.7394
29.0838
29.0471
28.6083
27.7372
26.5579
-29.4063
-29.9683
-30.1555
-29.4769
-28.6353
-28.3567
-28.2989
-28.7045
-29.1138
-29.6621
-29.7012
-29.3751
-28.4868
-27.2706
-25.7048
-24.0984
-22.7243
-21.4941
-20.4516
-19.3712
-18.2843
-17.1096
-15.9126
-14.6709
-13.4851
-12.4449
-11.5057
-10.6743
-9.84854
-9.03353
-8.19662
-7.38922
-6.66295
-5.99655
-5.40628
-4.85611
-4.35059
-3.82947
-3.2982
-2.7377
-2.18306
-1.66996
-1.186
-0.74531
-0.323336
0.0743851
0.49642
0.937377
1.42153
1.93539
2.49149
3.05693
3.60007
4.14129
4.67859
5.27015
5.91386
6.63482
7.39111
8.13711
8.88884
9.62215
10.3793
11.153
12.0442
13.043
14.1915
15.4003
16.5708
17.725
18.8009
19.8779
20.9274
22.1666
23.557
25.187
26.808
28.1425
29.2273
29.8695
30.2797
30.3643
30.7435
31.3158
32.3816
33.3001
33.4038
32.9996
31.8034
30.5204
-34.7236
-34.4393
-35.235
-32.9566
-30.4594
-30.52
-30.0574
-31.3897
-31.846
-33.7542
-33.7289
-33.7337
-32.3013
-30.8305
-28.3761
-25.9578
-24.4812
-23.0375
-22.2928
-21.0913
-20.0437
-18.6332
-17.3157
-15.7313
-14.2361
-13.1564
-12.1362
-11.4292
-10.5465
-9.71814
-8.70899
-7.72813
-6.96813
-6.22681
-5.66617
-5.09168
-4.6734
-4.12147
-3.58301
-2.90955
-2.23829
-1.69916
-1.15887
-0.738629
-0.298069
0.0236705
0.463811
0.88418
1.42265
1.96075
2.62706
3.29857
3.84768
4.41827
4.88086
5.50796
6.16296
7.02823
7.94134
8.73146
9.5789
10.2829
11.0819
11.721
12.6891
13.724
15.1735
16.7142
17.9969
19.3735
20.4051
21.5904
22.3466
23.7757
25.2476
27.6202
30.0499
31.5951
33.1574
33.4794
33.9542
32.8798
33.4033
33.6752
36.23
38.683
38.4852
38.5248
35.988
35.4132
-43.4264
-37.3474
-44.7331
-36.7435
-28.5921
-33.4293
-29.2244
-35.3303
-32.4827
-40.6267
-37.7106
-40.16
-36.1701
-35.8064
-30.9947
-26.4611
-26.1905
-23.5749
-24.7926
-22.5911
-22.3273
-20.0244
-19.1049
-16.6647
-14.3901
-13.7835
-12.3167
-12.4386
-11.1674
-10.6643
-9.18175
-7.74992
-7.24728
-6.19765
-5.94675
-5.103
-5.18936
-4.39474
-4.06281
-3.07872
-2.10355
-1.73026
-0.959037
-0.761314
-0.101782
-0.197635
0.459606
0.6609
1.42434
1.80162
2.75541
3.7169
4.06482
4.85137
4.8468
5.70622
6.11001
7.35362
8.66969
9.24439
10.4766
10.8082
12.0156
11.8164
13.2386
13.8091
16.0254
18.4007
19.2893
21.5201
21.7889
23.9213
22.7969
25.3229
25.6406
29.9703
34.5644
35.0218
38.8715
36.8664
39.8556
33.0893
36.4197
32.7411
40.2181
47.8763
43.2178
47.7532
37.3411
43.1026
-67.1385
-20.857
-76.3619
-40.7537
-8.01206
-49.3502
-13.5347
-52.1568
-17.2844
-63.4215
-33.9624
-55.857
-34.8156
-47.187
-33.212
-20.8243
-31.2763
-18.5923
-32.2173
-21.3018
-27.5492
-19.425
-23.0859
-17.3612
-12.1432
-15.6505
-10.2108
-15.4553
-10.6837
-13.0224
-9.58253
-6.4344
-8.3149
-5.01887
-7.08176
-3.77553
-6.97476
-4.00243
-5.48242
-3.23547
-1.10227
-2.33454
0.0666448
-1.44909
1.18232
-1.50358
1.11192
-0.372003
1.98213
0.812379
2.873
5.01932
3.6509
6.42438
3.56907
6.56128
4.84834
7.57558
10.4669
8.81166
12.6728
10.0734
14.9764
9.57805
15.0155
11.5252
16.6499
22.2298
18.6504
26.4938
20.4904
30.943
17.9903
30.05
20.2549
31.9391
45.0353
33.5621
53.0147
33.0581
59.8011
18.7531
49.522
15.7344
43.9369
74.7972
34.7019
78.4965
15.3951
65.4504
29330
29268
29204.2
29138.5
29071.1
29002.1
28931.8
28860.3
28787.7
28714.2
28639.9
28565
28489.6
28413.9
28338
3.04296
2.86291
2.66437
2.45211
2.23086
2.00493
1.77795
1.55271
1.33114
1.11435
0.902756
0.696158
0.493889
0.29494
0.0980747
5.09633
4.79148
4.45534
4.09637
3.72288
3.34236
2.96101
2.58354
2.21307
1.85136
1.49895
1.15538
0.819412
0.489231
0.162665
7.18761
6.75024
6.26815
5.75426
5.22114
4.67993
4.13966
3.60693
3.08596
2.57891
2.08622
1.60696
1.1391
0.679877
0.226015
9.33375
8.75208
8.11125
7.42999
6.72624
6.01548
5.30982
4.61776
3.94433
3.29171
2.65986
2.04701
1.45009
0.865118
0.287534
11.5543
10.8111
9.99297
9.12655
8.23684
7.34457
6.46517
5.60884
4.78094
3.98305
3.21407
2.47089
1.749
1.04292
0.346542
13.873
12.9434
11.9213
10.8448
9.74854
8.65943
7.59624
6.57027
5.58633
4.64452
3.7418
2.87308
2.0319
1.21092
0.402257
16.3188
15.1667
13.9024
12.5816
11.2518
9.9472
8.6892
7.48869
6.34848
5.26584
4.2347
3.24717
2.29428
1.36646
0.453796
18.9279
17.4997
15.9378
14.3256
12.7279
11.1868
9.72364
8.34601
7.05217
5.83466
4.68313
3.58599
2.53121
1.50665
0.500205
21.7486
19.9619
18.0198
16.0515
14.1447
12.3456
10.6705
9.11823
7.67845
6.33651
5.07631
3.88179
2.73747
1.62849
0.540509
24.8585
22.5758
20.1248
17.7131
15.4513
13.378
11.4923
9.77619
8.20548
6.75544
5.40285
4.1267
2.90793
1.72909
0.57377
28.3933
25.355
22.1876
19.2223
16.5671
14.2205
12.1428
10.2871
8.61041
7.07564
5.65196
4.31348
3.038
1.80589
0.599172
32.6397
28.2576
24.0436
20.4178
17.371
14.7914
12.5691
10.6176
8.87193
7.28346
5.81482
4.4365
3.12421
1.85701
0.616121
38.2363
30.9873
25.3063
21.031
17.7044
15.0021
12.7225
10.7404
8.97476
7.37012
5.88632
4.49276
3.16482
1.88158
0.624339
45.7666
32.1441
25.1589
20.6919
17.4105
14.7874
12.5761
10.6449
8.91509
7.33461
5.86652
4.48267
3.16029
1.87988
0.62394
-0.642688
-1.93613
-3.25406
-4.61394
-6.03515
-7.54007
-9.15593
-10.9175
-12.8718
-15.0858
-17.6624
-20.7711
-24.7122
-30.0234
-37.4147
-0.631444
-1.90157
-3.19361
-4.52298
-5.9064
-7.36258
-8.91324
-10.5844
-12.4081
-14.4242
-16.6806
-19.2254
-22.0532
-24.8372
-25.7129
-0.615135
-1.85164
-3.10696
-4.39405
-5.72648
-7.11865
-8.58592
-10.1444
-11.8098
-13.594
-15.4962
-17.481
-19.4225
-20.973
-21.3815
-0.594457
-1.78852
-2.998
-4.23324
-5.5045
-6.82182
-8.1944
-9.62924
-11.128
-12.6805
-14.2527
-15.7649
-17.061
-17.8993
-18.0802
-0.570175
-1.71456
-2.87094
-4.04703
-5.25
-6.48594
-7.7589
-9.06889
-10.4078
-11.7521
-13.0495
-14.1974
-15.0154
-15.2803
-15.2989
-0.543071
-1.63217
-2.72999
-3.84184
-4.97214
-6.12379
-7.29708
-8.48774
-9.68312
-10.8553
-11.9491
-12.858
-13.3527
-12.8312
-9.06239
-0.513895
-1.54366
-2.57914
-3.62353
-4.67902
-5.74611
-6.82275
-7.90286
-8.97375
-10.0118
-10.9767
-11.8049
-12.3951
-12.6362
-12.7949
-0.483342
-1.45112
-2.42195
-3.39727
-4.37747
-5.36137
-6.34565
-7.32412
-8.28665
-9.21805
-10.0993
-10.9162
-11.6796
-12.4983
-13.7442
-0.452031
-1.35642
-2.26157
-3.16744
-4.07301
-4.97595
-5.8723
-6.75633
-7.62084
-8.45839
-9.26659
-10.0644
-10.9256
-12.0637
-13.9844
-0.420499
-1.26116
-2.10066
-2.93768
-3.77012
-4.59478
-5.40721
-6.202
-6.97365
-7.71863
-8.44117
-9.16832
-9.97944
-11.086
-13.1013
-0.389204
-1.16673
-1.94145
-2.71104
-3.47248
-4.22182
-4.95411
-5.66367
-6.34497
-6.99418
-7.61268
-8.21408
-8.82849
-9.47775
-9.93405
-0.358526
-1.07424
-1.7858
-2.49005
-3.18317
-3.86055
-4.5166
-5.14492
-5.73862
-6.29098
-6.79622
-7.25108
-7.6538
-8.00431
-8.36789
-0.32878
-0.984634
-1.63526
-2.27678
-2.90478
-3.51402
-4.09827
-4.65017
-5.16107
-5.62056
-6.015
-6.32465
-6.51592
-6.5226
-6.1632
-0.300218
-0.898664
-1.49104
-2.07295
-2.63946
-3.18486
-3.7024
-4.18393
-4.61937
-4.99547
-5.29294
-5.48085
-5.5068
-5.29591
-4.8896
-0.273037
-0.816912
-1.35411
-1.87984
-2.38885
-2.87512
-3.3316
-3.74979
-4.11906
-4.42523
-4.6473
-4.74998
-4.66276
-4.20568
-2.74553
-0.247379
-0.739803
-1.22515
-1.69841
-2.15412
-2.58617
-2.9875
-3.34976
-3.6628
-3.91367
-4.08494
-4.15147
-4.07615
-3.81271
-3.40125
-0.223342
-0.667619
-1.10461
-1.5292
-1.93591
-2.31867
-2.67067
-2.98411
-3.24994
-3.45773
-3.59569
-3.65198
-3.62079
-3.52325
-3.47023
-0.200977
-0.600507
-0.992706
-1.37248
-1.73442
-2.07267
-2.3808
-2.6517
-2.87764
-3.05062
-3.16356
-3.21376
-3.21214
-3.20362
-3.29728
-0.1803
-0.538502
-0.889468
-1.22821
-1.54948
-1.84772
-2.11694
-2.35073
-2.54241
-2.68555
-2.77539
-2.81204
-2.80887
-2.81382
-2.98051
-0.161291
-0.481542
-0.794761
-1.09613
-1.38065
-1.64308
-1.87787
-2.07922
-2.24113
-2.35785
-2.42454
-2.43846
-2.40056
-2.3124
-2.13064
-0.143909
-0.429488
-0.708324
-0.975828
-1.22728
-1.45778
-1.66222
-1.83529
-1.9715
-2.06524
-2.11073
-2.10131
-2.02769
-1.8766
-1.66711
-0.128088
-0.382141
-0.629802
-0.866747
-1.08856
-1.29071
-1.46853
-1.61718
-1.73161
-1.80645
-1.83539
-1.80917
-1.70906
-1.48187
-0.926741
-0.113751
-0.339258
-0.558769
-0.768249
-0.963609
-1.1407
-1.29528
-1.42303
-1.51946
-1.57983
-1.59868
-1.56872
-1.47911
-1.31528
-1.08831
-0.100808
-0.300567
-0.494752
-0.67963
-0.851451
-1.00645
-1.14084
-1.25082
-1.33259
-1.38234
-1.39616
-1.37006
-1.30105
-1.19292
-1.08133
-0.0891633
-0.265775
-0.437247
-0.600153
-0.751081
-0.886645
-1.0035
-1.09839
-1.16819
-1.21005
-1.22163
-1.20152
-1.1505
-1.07335
-0.976223
-0.0787175
-0.234581
-0.385737
-0.529065
-0.661481
-0.77996
-0.881575
-0.963552
-1.02338
-1.05904
-1.06937
-1.05475
-1.01841
-0.967997
-0.915642
-0.0693714
-0.206683
-0.33971
-0.465626
-0.581656
-0.685111
-0.77343
-0.844254
-0.895544
-0.925838
-0.934678
-0.923328
-0.896378
-0.864318
-0.846523
-0.0610274
-0.181785
-0.298665
-0.409117
-0.510655
-0.600889
-0.677572
-0.738668
-0.782459
-0.80775
-0.814218
-0.802988
-0.778166
-0.751029
-0.75717
-0.0535915
-0.159606
-0.262125
-0.358861
-0.447588
-0.526185
-0.592667
-0.645241
-0.682378
-0.702925
-0.706244
-0.69231
-0.661801
-0.614893
-0.540072
-0.0469749
-0.139875
-0.229641
-0.314222
-0.391636
-0.459994
-0.517536
-0.562664
-0.593963
-0.610235
-0.610428
-0.593339
-0.55703
-0.498359
-0.422026
-0.041094
-0.122344
-0.200793
-0.274614
-0.342042
-0.401403
-0.451135
-0.489806
-0.516117
-0.528866
-0.526771
-0.507889
-0.467965
-0.394266
-0.237983
-0.0358711
-0.106778
-0.175194
-0.239495
-0.298117
-0.349582
-0.39251
-0.425638
-0.447808
-0.457942
-0.454909
-0.437201
-0.402502
-0.347664
-0.276037
-0.0312339
-0.0929622
-0.152483
-0.208363
-0.259223
-0.303763
-0.340779
-0.369173
-0.387966
-0.396287
-0.393359
-0.378447
-0.351157
-0.312844
-0.272805
-0.0271158
-0.0806956
-0.132331
-0.18076
-0.224774
-0.263238
-0.295112
-0.319463
-0.335489
-0.342555
-0.340236
-0.328409
-0.307582
-0.279339
-0.245734
-0.0234555
-0.0697951
-0.114431
-0.156259
-0.194227
-0.227351
-0.254739
-0.275608
-0.289322
-0.295438
-0.29381
-0.284727
-0.269263
-0.249663
-0.229417
-0.0201964
-0.0600918
-0.0985039
-0.134474
-0.16709
-0.195504
-0.218955
-0.236792
-0.248504
-0.253786
-0.252646
-0.245569
-0.233912
-0.22053
-0.210461
-0.0172869
-0.0514309
-0.0842937
-0.115048
-0.142909
-0.167151
-0.187127
-0.202289
-0.212217
-0.216672
-0.215681
-0.209671
-0.199842
-0.189185
-0.186779
-0.0146796
-0.0436709
-0.071566
-0.097658
-0.121277
-0.141805
-0.158693
-0.171474
-0.179788
-0.183405
-0.182267
-0.176498
-0.166419
-0.152185
-0.130791
-0.012331
-0.036682
-0.0601067
-0.0820082
-0.101821
-0.119025
-0.133153
-0.143809
-0.150671
-0.153499
-0.152126
-0.146379
-0.135942
-0.120217
-0.100396
-0.010201
-0.0303448
-0.0497193
-0.0678288
-0.0842038
-0.0984112
-0.110062
-0.11882
-0.124399
-0.126559
-0.12507
-0.119568
-0.109187
-0.0911422
-0.0544581
-0.00825283
-0.0245493
-0.0402225
-0.0548708
-0.068114
-0.0796001
-0.0890123
-0.0960717
-0.100537
-0.102196
-0.100841
-0.0961881
-0.0877955
-0.0750478
-0.0587048
-0.00645195
-0.0191927
-0.0314475
-0.0429032
-0.0532629
-0.0622519
-0.0696219
-0.0751529
-0.078654
-0.0799616
-0.0789332
-0.0754408
-0.0694613
-0.0614808
-0.0542722
-0.00476599
-0.0141787
-0.0232358
-0.0317084
-0.0393791
-0.0460467
-0.0515294
-0.0556663
-0.0583192
-0.059377
-0.0587628
-0.0564491
-0.0525432
-0.0474036
-0.0413459
-0.00316417
-0.00941532
-0.0154365
-0.0210795
-0.0262037
-0.030679
-0.0343879
-0.0372273
-0.0391109
-0.0399755
-0.0397926
-0.0385853
-0.036503
-0.0339844
-0.032423
-0.00161684
-0.00481443
-0.0079045
-0.0108176
-0.0134879
-0.0158543
-0.0178623
-0.0194646
-0.0206237
-0.0213176
-0.0215482
-0.0213452
-0.0207814
-0.0199161
-0.0182293
-9.51189e-05
-0.000289908
-0.000498207
-0.000728468
-0.000988492
-0.00128549
-0.00162626
-0.00201758
-0.00246786
-0.00299165
-0.00361414
-0.00436554
-0.00527914
-0.00642847
-0.00862954
0.00142955
0.00424335
0.00692223
0.00937969
0.0115342
0.0133105
0.0146413
0.0154671
0.0157357
0.0153981
0.0144056
0.0127221
0.0103822
0.00778464
0.00701332
0.00298582
0.00887067
0.014497
0.019699
0.0243202
0.0282167
0.0312603
0.03334
0.0343617
0.0342436
0.0329068
0.0302665
0.0262235
0.0207301
0.0142709
0.00460284
0.0136789
0.0223688
0.0304249
0.0376132
0.0437196
0.0485537
0.0519535
0.0537858
0.0539416
0.0523204
0.0487917
0.0430785
0.0343519
0.0192765
0.00631068
0.0187576
0.0306848
0.0417588
0.0516646
0.0601141
0.0668528
0.0716665
0.0743859
0.0748857
0.0730715
0.0688464
0.0620383
0.0523933
0.0405929
0.00814084
0.0242006
0.0395992
0.0539118
0.0667374
0.0777088
0.0865026
0.0928494
0.0965445
0.0974543
0.0955159
0.0907136
0.0829869
0.0719489
0.0556751
0.0101266
0.0301072
0.0492752
0.0671079
0.0831112
0.0968318
0.10787
0.115895
0.12066
0.122025
0.119975
0.114637
0.106261
0.0951653
0.0823702
0.0123037
0.0365837
0.0598879
0.0815875
0.101087
0.117837
0.131353
0.141229
0.147165
0.148996
0.146748
0.140704
0.131456
0.119595
0.102939
0.0147105
0.0437447
0.0716262
0.0976107
0.120991
0.141113
0.157392
0.169332
0.176555
0.178838
0.176196
0.169036
0.158508
0.147397
0.143277
0.0173884
0.0517143
0.0846951
0.115461
0.143182
0.167087
0.186477
0.200749
0.209415
0.212143
0.208828
0.199757
0.186013
0.170397
0.158932
0.0203827
0.060627
0.0993174
0.135447
0.168051
0.196229
0.219155
0.236101
0.246446
0.249697
0.245512
0.233777
0.214875
0.190572
0.166557
0.0237421
0.0706295
0.115736
0.157904
0.196026
0.229055
0.256031
0.276086
0.288459
0.292474
0.287501
0.272841
0.247552
0.21061
0.16516
0.0275199
0.0818805
0.134214
0.1832
0.227572
0.266129
0.297762
0.321465
0.336338
0.341561
0.336289
0.319357
0.288396
0.236628
0.137911
0.0317736
0.0945526
0.155037
0.211732
0.263195
0.30806
0.345057
0.373039
0.39099
0.398013
0.393257
0.375701
0.343771
0.295325
0.233701
0.0365656
0.108832
0.178516
0.243931
0.303445
0.355507
0.398676
0.431652
0.45331
0.462734
0.459208
0.442126
0.410716
0.363267
0.293739
0.041963
0.124921
0.204987
0.280265
0.348919
0.409191
0.459445
0.498204
0.524217
0.536548
0.534678
0.518614
0.488917
0.446661
0.395945
0.0480381
0.143036
0.234809
0.321241
0.400265
0.469898
0.528273
0.573695
0.604728
0.620337
0.620127
0.604701
0.575978
0.536073
0.475869
0.0548678
0.163408
0.268372
0.367403
0.458191
0.538494
0.606181
0.659277
0.69606
0.715235
0.716281
0.700171
0.670965
0.639754
0.63796
0.0625337
0.186284
0.306088
0.419338
0.523458
0.61593
0.694315
0.756295
0.799743
0.822863
0.824503
0.804904
0.767528
0.723207
0.697264
0.0711211
0.211919
0.34839
0.477661
0.59688
0.703231
0.79394
0.866299
0.917677
0.945559
0.947644
0.92217
0.869117
0.794121
0.7194
0.0807179
0.240581
0.395727
0.543015
0.679308
0.801481
0.906416
0.990999
1.05207
1.08634
1.09011
1.05879
0.986163
0.865079
0.706349
0.0914137
0.27254
0.448559
0.616058
0.771615
0.911793
1.03314
1.13216
1.20524
1.24848
1.25714
1.22433
1.1371
0.962426
0.581636
0.103298
0.308066
0.507344
0.697449
0.874675
1.03528
1.17549
1.29147
1.3793
1.43483
1.4532
1.4279
1.34902
1.20317
1.0005
0.116459
0.347426
0.572534
0.78784
0.989353
1.17303
1.33478
1.47047
1.57599
1.64719
1.67982
1.66897
1.60775
1.48369
1.263
0.13098
0.390876
0.644567
0.887861
1.11649
1.32611
1.51229
1.67059
1.79668
1.88656
1.9369
1.94533
1.91046
1.83171
1.72131
0.146939
0.438652
0.723853
0.998116
1.25691
1.49556
1.70928
1.89323
2.04271
2.15364
2.22337
2.25209
2.24405
2.20219
2.07582
0.164405
0.490969
0.810763
1.11916
1.41138
1.68242
1.92707
2.13996
2.31571
2.44957
2.53861
2.58475
2.60158
2.63188
2.80789
0.183434
0.547999
0.90561
1.25148
1.58061
1.88769
2.16705
2.41261
2.618
2.77686
2.88395
2.93815
2.95024
2.96101
3.07043
0.204064
0.609865
1.00863
1.39546
1.76521
2.11229
2.43059
2.71331
2.95279
3.14035
3.26634
3.32117
3.30032
3.22226
3.18187
0.226312
0.676623
1.11993
1.55133
1.96559
2.35693
2.71892
3.04414
3.32379
3.54682
3.69843
3.75714
3.69061
3.45796
3.09634
0.250163
0.748241
1.2395
1.71912
2.18189
2.62199
3.03284
3.40673
3.73424
4.00309
4.1953
4.28044
4.19671
3.78381
2.4719
0.275569
0.824583
1.36713
1.8986
2.41392
2.90739
3.37247
3.80157
4.18554
4.51275
4.76677
4.92133
4.93184
4.73446
4.37003
0.302443
0.905394
1.50243
2.08927
2.66111
3.21247
3.73709
4.22776
4.67631
5.07336
5.40748
5.66255
5.81173
5.80166
5.48262
0.330651
0.990279
1.64477
2.29029
2.92245
3.53609
4.12523
4.68316
5.20284
5.67775
6.10319
6.47755
6.80258
7.08398
7.38653
0.360005
1.07869
1.79326
2.50051
3.19656
3.87661
4.53494
5.16503
5.76039
6.31648
6.83443
7.32698
7.82403
8.35214
8.72819
0.390261
1.16991
1.94676
2.71841
3.48164
4.23209
4.96411
5.67083
6.34504
6.9816
7.58325
8.17333
8.82412
9.72633
11.422
0.421101
1.26299
2.10375
2.94202
3.77542
4.60016
5.4106
6.19896
6.95558
7.67074
8.33991
8.97743
9.64968
10.5498
12.1398
0.45213
1.35677
2.26236
3.16882
4.07498
4.97791
5.87213
6.74876
7.59454
8.39146
9.11821
9.75716
10.3169
10.8941
11.8051
0.482861
1.4498
2.42019
3.39563
4.37653
5.36135
6.34548
7.31953
8.26693
9.1604
9.95695
10.5914
10.9716
11.0063
10.9491
0.512712
1.54032
2.57433
3.61838
4.67502
5.74488
6.82533
7.90822
8.97613
9.99596
10.9075
11.6016
11.8654
11.1818
7.71052
0.541001
1.62628
2.72129
3.83209
4.96395
6.12058
7.30289
8.5066
9.71793
10.9058
12.0082
12.9095
13.4163
13.2921
12.7698
0.566967
1.70535
2.85706
4.03087
5.23523
6.47789
7.76491
9.09886
10.4751
11.8741
13.2473
14.4902
15.4039
15.6776
15.0588
0.589793
1.77502
2.97723
4.20805
5.47945
6.80376
8.19355
9.66084
11.2152
12.859
14.5754
16.2979
17.834
18.6806
17.6894
0.608653
1.83272
3.07728
4.35668
5.68638
7.08348
8.56749
10.1613
11.892
13.7922
15.8977
18.2332
20.7409
22.9567
22.5375
0.622763
1.87604
3.15286
4.46999
5.84595
7.30207
8.8642
10.5653
12.4499
14.5815
17.0584
20.0462
23.8483
29.0593
36.7326
35.6093
27.9217
22.9474
19.3841
16.5826
14.24
12.2032
10.3857
8.73279
7.20597
5.7764
4.42102
3.12041
1.85753
0.616745
20.509
21.4615
19.74
17.5786
15.466
13.5017
11.6924
10.0216
8.46863
7.01321
5.63674
4.32241
3.05491
1.82009
0.604568
14.6594
16.855
16.8357
15.7371
14.2444
12.6544
11.084
9.5745
8.13581
6.76487
5.45333
4.19083
2.96642
1.76908
0.5879
9.07305
13.7842
14.6789
14.1673
13.0886
11.792
10.4322
9.07721
7.75508
6.47458
5.23531
4.03239
2.85885
1.70668
0.567448
12.8152
13.3619
13.4967
12.9899
12.0827
10.9723
9.77585
8.55619
7.34465
6.15502
4.99153
3.85319
2.73617
1.63513
0.543938
13.7835
13.224
12.7588
12.089
11.2169
10.2114
9.13471
8.0287
6.9183
5.81674
4.72985
3.65883
2.60215
1.55661
0.518077
14.0916
13.0194
12.1619
11.3277
10.4426
9.49908
8.51313
7.50356
6.48519
5.46778
4.45673
3.45422
2.46019
1.47311
0.490519
14.0948
12.6649
11.5479
10.601
9.70812
8.81551
7.9073
6.98392
6.05091
5.11397
4.17734
3.24346
2.31322
1.38637
0.461848
14.0463
12.0926
10.8152
9.83635
8.97287
8.14224
7.31147
6.47049
5.61893
4.7596
3.89576
3.02994
2.16374
1.29791
0.432571
13.0751
11.0507
9.87498
8.99123
8.21443
7.46869
6.72232
5.96405
5.192
4.4081
3.61532
2.81649
2.01386
1.20904
0.403124
9.88183
9.41965
8.73199
8.07171
7.4342
6.79532
6.14114
5.46689
4.77307
4.06255
3.3389
2.60554
1.8654
1.12086
0.373883
8.31472
7.94559
7.57016
7.1364
6.65484
6.13244
5.57373
4.98314
4.36555
3.72596
3.0691
2.39919
1.7199
1.03433
0.345166
6.13275
6.4764
6.44912
6.23443
5.90386
5.49475
5.02836
4.51804
3.97321
3.40126
2.80825
2.19928
1.5787
0.950246
0.317245
4.87182
5.26537
5.45859
5.41315
5.20753
4.89688
4.51351