/*--------------------------------*- C++ -*----------------------------------*\
| =========                 |                                                 |
| \\      /  F ield         | OpenFOAM: The Open Source CFD Toolbox           |
|  \\    /   O peration     | Version:  5.x                                   |
|   \\  /    A nd           | Web:      www.OpenFOAM.org                      |
|    \\/     M anipulation  |                                                 |
\*---------------------------------------------------------------------------*/
FoamFile
{
    version     2.0;
    format      ascii;
    class       volScalarField;
    location    "0.2";
    object      T;
}
// * * * * * * * * * * * * * * * * * * * * * * * * * * * * * * * * * * * * * //

dimensions      [0 0 0 1 0 0 0];

internalField   nonuniform List<scalar> 
6300
(
322.625
321.874
321.126
320.381
319.642
318.908
318.182
317.465
316.758
316.064
315.383
314.717
314.068
313.436
312.823
322.624
321.872
321.123
320.377
319.636
318.9
318.173
317.455
316.747
316.051
315.369
314.702
314.051
313.418
312.804
322.623
321.868
321.116
320.368
319.624
318.886
318.155
317.434
316.723
316.025
315.34
314.67
314.017
313.381
312.765
322.621
321.863
321.107
320.354
319.606
318.864
318.129
317.404
316.689
315.986
315.296
314.622
313.965
313.326
312.706
322.618
321.855
321.094
320.335
319.582
318.834
318.094
317.363
316.642
315.933
315.238
314.558
313.895
313.251
312.627
322.615
321.845
321.077
320.313
319.553
318.798
318.051
317.312
316.584
315.867
315.165
314.477
313.808
313.157
312.528
322.611
321.834
321.058
320.286
319.518
318.755
317.999
317.251
316.514
315.788
315.076
314.38
313.702
313.043
312.406
322.607
321.821
321.037
320.255
319.477
318.705
317.939
317.181
316.433
315.696
314.973
314.265
313.576
312.908
312.262
322.602
321.806
321.012
320.22
319.432
318.649
317.872
317.102
316.341
315.591
314.854
314.133
313.431
312.75
312.093
322.597
321.79
320.985
320.182
319.383
318.587
317.797
317.014
316.238
315.473
314.721
313.983
313.264
312.568
311.899
322.591
321.773
320.956
320.141
319.329
318.52
317.716
316.918
316.126
315.344
314.572
313.815
313.076
312.361
311.674
322.585
321.755
320.926
320.098
319.272
318.45
317.63
316.815
316.006
315.203
314.41
313.629
312.865
312.125
311.416
322.579
321.736
320.894
320.053
319.213
318.375
317.54
316.707
315.878
315.054
314.236
313.428
312.632
311.858
311.118
322.572
321.717
320.861
320.007
319.153
318.299
317.447
316.596
315.747
314.9
314.055
313.213
312.378
311.557
310.768
322.566
321.697
320.828
319.96
319.091
318.223
317.354
316.485
315.615
314.743
313.87
312.993
312.112
311.226
310.345
312.28
311.8
311.336
310.886
310.453
310.035
309.633
309.248
308.878
308.525
308.188
307.866
307.56
307.27
306.994
306.732
306.485
306.251
306.03
305.822
305.625
305.44
305.265
305.1
304.945
304.799
304.661
304.531
304.408
304.292
304.183
304.079
303.98
303.886
303.796
303.71
303.628
303.549
303.473
303.399
303.326
303.256
303.187
303.119
303.051
302.983
302.916
302.848
302.779
302.709
302.638
302.565
302.489
302.411
302.33
302.246
302.158
302.066
301.969
301.867
301.759
301.646
301.525
301.398
301.263
301.12
300.968
300.807
300.636
300.454
300.261
300.057
299.84
299.61
299.367
299.11
298.838
298.551
298.249
297.931
297.596
297.245
296.878
296.493
296.092
295.674
295.239
294.788
294.32
293.837
312.26
311.779
311.314
310.864
310.43
310.012
309.611
309.225
308.856
308.503
308.166
307.844
307.539
307.249
306.973
306.713
306.466
306.233
306.013
305.805
305.609
305.425
305.251
305.087
304.933
304.787
304.65
304.521
304.399
304.284
304.175
304.071
303.973
303.88
303.791
303.706
303.624
303.545
303.469
303.396
303.324
303.254
303.186
303.118
303.051
302.984
302.916
302.849
302.781
302.711
302.64
302.568
302.493
302.415
302.335
302.251
302.164
302.072
301.976
301.875
301.768
301.655
301.535
301.409
301.274
301.132
300.981
300.821
300.65
300.47
300.278
300.074
299.858
299.629
299.387
299.13
298.859
298.573
298.271
297.954
297.619
297.269
296.901
296.517
296.115
295.697
295.262
294.81
294.342
293.858
312.219
311.737
311.271
310.82
310.386
309.967
309.565
309.18
308.81
308.458
308.121
307.801
307.496
307.207
306.933
306.674
306.428
306.197
305.978
305.772
305.578
305.395
305.223
305.06
304.908
304.764
304.629
304.501
304.38
304.266
304.159
304.057
303.96
303.868
303.78
303.696
303.615
303.538
303.463
303.39
303.32
303.251
303.183
303.116
303.05
302.984
302.918
302.851
302.784
302.715
302.646
302.574
302.5
302.424
302.344
302.262
302.176
302.085
301.99
301.89
301.785
301.673
301.555
301.43
301.297
301.157
301.007
300.848
300.68
300.501
300.311
300.109
299.894
299.667
299.426
299.171
298.902
298.617
298.316
297.999
297.666
297.316
296.949
296.564
296.163
295.744
295.308
294.855
294.386
293.901
312.158
311.674
311.206
310.754
310.318
309.899
309.497
309.111
308.742
308.39
308.054
307.735
307.432
307.144
306.872
306.614
306.371
306.142
305.926
305.722
305.53
305.35
305.18
305.021
304.87
304.729
304.596
304.471
304.352
304.241
304.135
304.035
303.94
303.85
303.764
303.681
303.602
303.526
303.453
303.382
303.313
303.246
303.179
303.114
303.049
302.984
302.92
302.854
302.788
302.722
302.653
302.583
302.511
302.436
302.358
302.278
302.193
302.105
302.011
301.913
301.81
301.7
301.585
301.462
301.332
301.193
301.046
300.89
300.724
300.547
300.36
300.16
299.949
299.724
299.486
299.233
298.965
298.682
298.383
298.068
297.736
297.387
297.02
296.636
296.234
295.815
295.378
294.924
294.453
293.965
312.075
311.589
311.119
310.665
310.228
309.808
309.405
309.019
308.651
308.299
307.965
307.647
307.345
307.06
306.79
306.535
306.295
306.069
305.856
305.656
305.467
305.29
305.124
304.968
304.821
304.683
304.553
304.43
304.315
304.206
304.103
304.006
303.914
303.826
303.742
303.662
303.585
303.512
303.44
303.371
303.304
303.239
303.174
303.111
303.048
302.985
302.922
302.859
302.795
302.73
302.663
302.595
302.525
302.452
302.377
302.298
302.216
302.13
302.04
301.944
301.843
301.737
301.624
301.504
301.377
301.242
301.098
300.945
300.783
300.61
300.426
300.23
300.021
299.8
299.565
299.315
299.051
298.77
298.474
298.16
297.83
297.482
297.116
296.733
296.331
295.91
295.472
295.016
294.542
294.052
311.971
311.481
311.008
310.552
310.114
309.693
309.289
308.903
308.535
308.185
307.851
307.535
307.236
306.954
306.687
306.436
306.2
305.977
305.768
305.572
305.388
305.215
305.053
304.901
304.759
304.625
304.499
304.38
304.269
304.163
304.064
303.97
303.881
303.796
303.715
303.638
303.564
303.493
303.424
303.358
303.293
303.23
303.168
303.107
303.046
302.985
302.925
302.864
302.802
302.74
302.676
302.61
302.543
302.473
302.4
302.324
302.245
302.162
302.075
301.982
301.885
301.782
301.673
301.557
301.434
301.303
301.163
301.014
300.856
300.688
300.508
300.316
300.112
299.895
299.664
299.419
299.158
298.881
298.588
298.277
297.949
297.602
297.238
296.854
296.452
296.031
295.591
295.133
294.656
294.161
311.844
311.35
310.874
310.415
309.975
309.553
309.149
308.763
308.395
308.046
307.714
307.401
307.104
306.825
306.563
306.316
306.084
305.867
305.663
305.472
305.293
305.126
304.969
304.822
304.685
304.556
304.434
304.321
304.213
304.113
304.017
303.927
303.842
303.761
303.684
303.61
303.539
303.471
303.406
303.342
303.28
303.22
303.161
303.102
303.044
302.986
302.928
302.87
302.811
302.751
302.69
302.628
302.563
302.497
302.427
302.355
302.279
302.2
302.116
302.028
301.935
301.836
301.731
301.62
301.501
301.375
301.241
301.097
300.944
300.781
300.607
300.42
300.222
300.01
299.784
299.544
299.288
299.015
298.725
298.418
298.093
297.748
297.385
297.003
296.601
296.179
295.737
295.275
294.794
294.295
311.693
311.194
310.714
310.253
309.811
309.387
308.983
308.597
308.23
307.882
307.552
307.241
306.948
306.674
306.416
306.175
305.949
305.737
305.54
305.355
305.183
305.021
304.871
304.73
304.599
304.475
304.36
304.252
304.15
304.054
303.964
303.878
303.797
303.72
303.647
303.577
303.51
303.446
303.384
303.324
303.265
303.208
303.152
303.097
303.042
302.987
302.932
302.877
302.822
302.765
302.707
302.648
302.587
302.524
302.459
302.39
302.319
302.244
302.164
302.081
301.992
301.898
301.798
301.692
301.579
301.459
301.33
301.193
301.046
300.89
300.722
300.542
300.35
300.145
299.925
299.691
299.44
299.173
298.888
298.585
298.263
297.921
297.56
297.179
296.777
296.354
295.91
295.445
294.959
294.453
311.517
311.012
310.528
310.064
309.62
309.196
308.791
308.405
308.038
307.691
307.364
307.056
306.767
306.498
306.246
306.012
305.793
305.589
305.398
305.221
305.056
304.902
304.759
304.625
304.501
304.384
304.275
304.173
304.078
303.988
303.903
303.823
303.747
303.675
303.606
303.541
303.478
303.418
303.36
303.303
303.249
303.195
303.143
303.091
303.039
302.988
302.937
302.885
302.833
302.78
302.726
302.671
302.614
302.555
302.494
302.43
302.363
302.293
302.219
302.14
302.057
301.969
301.875
301.775
301.668
301.554
301.433
301.303
301.163
301.014
300.853
300.681
300.497
300.299
300.087
299.86
299.617
299.356
299.077
298.778
298.46
298.122
297.763
297.383
296.982
296.559
296.113
295.644
295.152
294.639
311.312
310.802
310.313
309.847
309.402
308.978
308.572
308.186
307.82
307.473
307.148
306.843
306.56
306.297
306.053
305.826
305.616
305.42
305.239
305.07
304.913
304.768
304.633
304.508
304.392
304.283
304.181
304.086
303.997
303.914
303.835
303.761
303.691
303.624
303.561
303.5
303.442
303.386
303.333
303.281
303.23
303.181
303.132
303.084
303.036
302.989
302.941
302.894
302.846
302.797
302.747
302.696
302.644
302.59
302.533
302.474
302.412
302.347
302.279
302.206
302.129
302.047
301.959
301.866
301.767
301.661
301.547
301.425
301.294
301.153
301.001
300.838
300.662
300.473
300.27
300.052
299.817
299.564
299.292
298.999
298.686
298.351
297.996
297.618
297.219
296.796
296.348
295.875
295.377
294.854
311.077
310.559
310.068
309.601
309.156
308.732
308.326
307.94
307.572
307.226
306.902
306.602
306.324
306.069
305.835
305.619
305.419
305.233
305.061
304.902
304.755
304.619
304.494
304.379
304.271
304.172
304.078
303.991
303.91
303.833
303.762
303.694
303.631
303.57
303.512
303.456
303.403
303.352
303.303
303.256
303.21
303.165
303.121
303.077
303.033
302.99
302.946
302.903
302.859
302.815
302.77
302.724
302.676
302.627
302.576
302.522
302.466
302.407
302.345
302.278
302.208
302.133
302.052
301.966
301.875
301.777
301.673
301.56
301.439
301.307
301.165
301.011
300.845
300.667
300.475
300.268
300.044
299.8
299.536
299.25
298.941
298.611
298.259
297.885
297.489
297.067
296.618
296.141
295.635
295.101
310.805
310.281
309.787
309.323
308.882
308.46
308.055
307.666
307.296
306.947
306.624
306.327
306.057
305.813
305.591
305.388
305.201
305.027
304.865
304.717
304.58
304.456
304.342
304.237
304.141
304.051
303.967
303.888
303.815
303.746
303.682
303.623
303.566
303.511
303.459
303.409
303.361
303.315
303.272
303.229
303.189
303.149
303.109
303.07
303.03
302.991
302.951
302.912
302.873
302.834
302.794
302.753
302.711
302.667
302.621
302.573
302.523
302.471
302.416
302.357
302.294
302.225
302.153
302.075
301.992
301.904
301.809
301.708
301.597
301.477
301.345
301.202
301.047
300.88
300.701
300.507
300.297
300.065
299.811
299.531
299.227
298.9
298.552
298.183
297.794
297.377
296.929
296.447
295.931
295.385
310.489
309.96
309.464
309.011
308.584
308.165
307.76
307.366
306.99
306.633
306.308
306.014
305.755
305.524
305.321
305.137
304.964
304.803
304.652
304.514
304.389
304.277
304.176
304.085
304.002
303.923
303.848
303.778
303.713
303.653
303.598
303.547
303.497
303.45
303.404
303.359
303.316
303.276
303.237
303.201
303.166
303.132
303.097
303.062
303.027
302.991
302.956
302.922
302.888
302.854
302.82
302.785
302.748
302.71
302.669
302.627
302.584
302.54
302.492
302.441
302.386
302.325
302.26
302.189
302.116
302.038
301.956
301.868
301.77
301.662
301.541
301.409
301.264
301.11
300.946
300.772
300.58
300.363
300.12
299.847
299.547
299.218
298.873
298.511
298.136
297.733
297.286
296.801
296.271
295.712
310.111
309.592
309.082
308.664
308.273
307.85
307.454
307.038
306.659
306.272
305.949
305.652
305.411
305.196
305.024
304.869
304.711
304.566
304.42
304.295
304.179
304.083
303.995
303.923
303.856
303.788
303.724
303.66
303.604
303.552
303.508
303.468
303.426
303.387
303.346
303.307
303.268
303.233
303.2
303.171
303.144
303.115
303.086
303.055
303.024
302.991
302.961
302.93
302.902
302.873
302.847
302.819
302.788
302.755
302.719
302.683
302.647
302.612
302.575
302.531
302.485
302.431
302.374
302.309
302.245
302.178
302.113
302.042
301.957
301.864
301.753
301.633
301.493
301.355
301.206
301.06
300.898
300.697
300.474
300.201
299.906
299.557
299.22
298.857
298.518
298.151
297.698
297.217
296.651
296.094
309.62
309.213
308.57
308.276
308.012
307.496
307.176
306.659
306.34
305.82
305.554
305.211
305.031
304.808
304.701
304.607
304.44
304.332
304.156
304.063
303.943
303.876
303.794
303.752
303.714
303.647
303.602
303.529
303.489
303.439
303.414
303.392
303.352
303.326
303.285
303.257
303.212
303.188
303.156
303.14
303.124
303.097
303.078
303.047
303.025
302.987
302.965
302.935
302.916
302.89
302.875
302.859
302.83
302.807
302.766
302.741
302.706
302.687
302.666
302.626
302.595
302.541
302.5
302.426
302.381
302.314
302.277
302.236
302.156
302.092
301.977
301.887
301.72
301.617
301.459
301.371
301.271
301.063
300.898
300.584
300.344
299.88
299.602
299.166
298.941
298.691
298.151
297.756
297.018
296.574
293.289
292.671
292.033
291.376
290.703
290.015
289.313
288.598
287.873
287.138
286.396
285.648
284.895
284.138
283.38
293.31
292.69
292.051
291.393
290.718
290.028
289.324
288.608
287.882
287.146
286.402
285.653
284.898
284.14
283.38
293.35
292.728
292.086
291.425
290.748
290.055
289.348
288.629
287.899
287.161
286.414
285.662
284.905
284.144
283.382
293.412
292.786
292.14
291.475
290.793
290.095
289.384
288.66
287.926
287.183
286.432
285.676
284.915
284.15
283.384
293.494
292.863
292.211
291.541
290.852
290.148
289.431
288.701
287.961
287.212
286.456
285.694
284.928
284.158
283.386
293.598
292.961
292.302
291.623
290.927
290.215
289.49
288.752
288.005
287.249
286.486
285.717
284.944
284.167
283.389
293.725
293.079
292.411
291.723
291.017
290.295
289.56
288.813
288.057
287.292
286.52
285.743
284.962
284.179
283.393
293.876
293.22
292.54
291.84
291.122
290.388
289.642
288.884
288.117
287.342
286.56
285.774
284.984
284.192
283.397
294.051
293.383
292.689
291.975
291.242
290.494
289.734
288.963
288.184
287.397
286.605
285.808
285.008
284.206
283.402
294.254
293.57
292.859
292.127
291.377
290.612
289.836
289.051
288.258
287.458
286.654
285.846
285.035
284.222
283.407
294.486
293.782
293.05
292.296
291.525
290.741
289.947
289.146
288.337
287.524
286.707
285.886
285.063
284.239
283.413
294.751
294.021
293.262
292.481
291.686
290.88
290.066
289.246
288.422
287.593
286.762
285.928
285.093
284.256
283.419
295.054
294.289
293.493
292.68
291.856
291.026
290.19
289.351
288.51
287.666
286.82
285.972
285.124
284.275
283.425
295.404
294.586
293.742
292.889
292.033
291.176
290.317
289.459
288.599
287.739
286.878
286.017
285.155
284.293
283.431
295.819
294.909
294
293.101
292.21
291.326
290.445
289.566
288.689
287.813
286.937
286.062
285.187
284.312
283.437
322.56
321.679
320.798
319.917
319.036
318.153
317.269
316.383
315.495
314.602
313.704
312.796
311.873
310.918
309.877
322.554
321.663
320.772
319.879
318.986
318.091
317.194
316.293
315.389
314.479
313.56
312.629
311.678
310.697
309.679
322.549
321.648
320.745
319.842
318.937
318.03
317.121
316.207
315.288
314.362
313.426
312.476
311.505
310.504
309.449
322.544
321.632
320.72
319.806
318.89
317.972
317.05
316.124
315.192
314.252
313.302
312.338
311.355
310.348
309.323
322.539
321.618
320.695
319.771
318.845
317.917
316.984
316.046
315.103
314.151
313.188
312.213
311.221
310.205
309.147
322.535
321.604
320.672
319.738
318.803
317.864
316.921
315.973
315.019
314.057
313.085
312.101
311.104
310.093
309.068
322.53
321.591
320.65
319.707
318.763
317.814
316.862
315.905
314.941
313.97
312.989
311.999
310.998
309.991
308.996
322.526
321.578
320.629
319.678
318.725
317.768
316.807
315.842
314.869
313.89
312.902
311.904
310.898
309.882
308.855
322.522
321.566
320.609
319.651
318.69
317.725
316.757
315.783
314.803
313.816
312.821
311.817
310.804
309.783
308.767
322.519
321.555
320.591
319.625
318.657
317.685
316.71
315.729
314.742
313.749
312.747
311.737
310.716
309.681
308.622
322.515
321.545
320.574
319.602
318.627
317.649
316.666
315.68
314.687
313.687
312.68
311.664
310.637
309.598
308.549
322.512
321.536
320.559
319.58
318.599
317.615
316.627
315.635
314.637
313.632
312.62
311.6
310.568
309.523
308.456
322.509
321.527
320.545
319.56
318.574
317.584
316.591
315.594
314.591
313.583
312.567
311.543
310.51
309.465
308.409
322.507
321.52
320.532
319.542
318.551
317.556
316.559
315.557
314.551
313.538
312.52
311.494
310.46
309.415
308.353
322.504
321.512
320.52
319.526
318.53
317.531
316.529
315.524
314.514
313.499
312.479
311.452
310.418
309.377
308.328
322.502
321.506
320.509
319.511
318.511
317.508
316.503
315.495
314.482
313.465
312.443
311.415
310.382
309.345
308.307
322.5
321.5
320.499
319.497
318.494
317.488
316.48
315.468
314.453
313.434
312.411
311.383
310.35
309.313
308.271
322.498
321.495
320.491
319.485
318.479
317.47
316.459
315.445
314.428
313.407
312.383
311.354
310.322
309.286
308.25
322.497
321.49
320.483
319.475
318.465
317.453
316.44
315.424
314.405
313.383
312.358
311.329
310.297
309.26
308.216
322.495
321.486
320.476
319.465
318.453
317.439
316.423
315.406
314.385
313.362
312.336
311.307
310.275
309.239
308.2
322.494
321.482
320.47
319.456
318.442
317.426
316.409
315.389
314.368
313.344
312.318
311.289
310.257
309.221
308.181
322.493
321.479
320.464
319.449
318.432
317.415
316.396
315.375
314.352
313.328
312.301
311.272
310.241
309.208
308.172
322.492
321.476
320.459
319.442
318.424
317.405
316.384
315.362
314.339
313.314
312.287
311.258
310.228
309.197
308.165
322.491
321.473
320.455
319.436
318.416
317.396
316.374
315.351
314.327
313.302
312.275
311.246
310.217
309.186
308.154
322.49
321.471
320.451
319.43
318.41
317.388
316.365
315.342
314.317
313.291
312.264
311.236
310.206
309.177
308.147
322.49
321.469
320.447
319.426
318.404
317.381
316.357
315.333
314.308
313.281
312.254
311.226
310.197
309.168
308.138
322.489
321.467
320.444
319.422
318.399
317.375
316.35
315.325
314.3
313.273
312.246
311.218
310.189
309.161
308.132
322.488
321.465
320.442
319.418
318.394
317.369
316.344
315.319
314.293
313.266
312.239
311.211
310.182
309.154
308.124
322.488
321.464
320.439
319.415
318.39
317.365
316.339
315.313
314.287
313.26
312.232
311.205
310.176
309.148
308.119
322.488
321.462
320.437
319.412
318.387
317.361
316.335
315.308
314.281
313.254
312.227
311.199
310.171
309.143
308.115
322.487
321.461
320.436
319.41
318.383
317.357
316.331
315.304
314.277
313.25
312.222
311.195
310.167
309.14
308.112
322.487
321.46
320.434
319.407
318.381
317.354
316.327
315.3
314.273
313.245
312.218
311.191
310.164
309.137
308.111
322.487
321.46
320.433
319.406
318.379
317.351
316.324
315.297
314.269
313.242
312.215
311.187
310.16
309.134
308.108
322.486
321.459
320.431
319.404
318.376
317.349
316.321
315.294
314.266
313.239
312.212
311.184
310.158
309.132
308.106
322.486
321.458
320.43
319.403
318.375
317.347
316.319
315.291
314.264
313.236
312.209
311.182
310.155
309.129
308.104
322.486
321.458
320.43
319.401
318.373
317.345
316.317
315.289
314.261
313.234
312.207
311.18
310.153
309.127
308.102
322.486
321.457
320.429
319.4
318.372
317.344
316.315
315.287
314.26
313.232
312.205
311.178
310.151
309.126
308.1
322.486
321.457
320.428
319.399
318.371
317.342
316.314
315.286
314.258
313.23
312.203
311.176
310.15
309.124
308.099
322.486
321.457
320.428
319.399
318.37
317.341
316.313
315.285
314.257
313.229
312.202
311.175
310.149
309.123
308.098
322.485
321.456
320.427
319.398
318.369
317.34
316.312
315.283
314.255
313.228
312.201
311.174
310.148
309.122
308.098
322.485
321.456
320.427
319.398
318.369
317.34
316.311
315.283
314.255
313.227
312.2
311.173
310.147
309.122
308.097
322.485
321.456
320.426
319.397
318.368
317.339
316.31
315.282
314.254
313.226
312.199
311.172
310.146
309.121
308.097
322.485
321.456
320.426
319.397
318.368
317.339
316.31
315.281
314.253
313.225
312.198
311.172
310.146
309.12
308.096
322.485
321.456
320.426
319.397
318.367
317.338
316.309
315.281
314.253
313.225
312.198
311.171
310.145
309.12
308.096
322.485
321.456
320.426
319.397
318.367
317.338
316.309
315.281
314.253
313.225
312.198
311.171
310.145
309.12
308.096
322.485
321.456
320.426
319.396
318.367
317.338
316.309
315.281
314.252
313.225
312.198
311.171
310.145
309.12
308.096
322.485
321.456
320.426
319.397
318.367
317.338
316.309
315.281
314.253
313.225
312.198
311.171
310.145
309.12
308.096
322.485
321.456
320.426
319.397
318.367
317.338
316.309
315.281
314.253
313.225
312.198
311.171
310.145
309.12
308.096
322.485
321.456
320.426
319.397
318.368
317.339
316.31
315.281
314.253
313.225
312.198
311.171
310.145
309.12
308.096
322.485
321.456
320.426
319.397
318.368
317.339
316.31
315.282
314.254
313.226
312.199
311.172
310.146
309.121
308.096
322.485
321.456
320.427
319.398
318.368
317.34
316.311
315.282
314.254
313.227
312.199
311.173
310.146
309.121
308.096
322.485
321.456
320.427
319.398
318.369
317.34
316.312
315.283
314.255
313.227
312.2
311.173
310.147
309.122
308.097
322.486
321.457
320.428
319.399
318.37
317.341
316.313
315.284
314.256
313.229
312.201
311.174
310.148
309.123
308.098
322.486
321.457
320.428
319.399
318.371
317.342
316.314
315.286
314.258
313.23
312.203
311.176
310.149
309.124
308.099
322.486
321.457
320.429
319.4
318.372
317.344
316.315
315.287
314.259
313.232
312.204
311.177
310.151
309.125
308.1
322.486
321.458
320.43
319.401
318.373
317.345
316.317
315.289
314.261
313.234
312.206
311.179
310.153
309.127
308.101
322.486
321.458
320.43
319.403
318.375
317.347
316.319
315.291
314.263
313.236
312.208
311.181
310.154
309.128
308.103
322.486
321.459
320.431
319.404
318.376
317.349
316.321
315.294
314.266
313.238
312.211
311.184
310.157
309.13
308.104
322.487
321.46
320.433
319.406
318.378
317.351
316.324
315.296
314.269
313.241
312.214
311.187
310.159
309.132
308.105
322.487
321.46
320.434
319.408
318.381
317.354
316.327
315.3
314.272
313.245
312.217
311.19
310.162
309.135
308.108
322.487
321.461
320.436
319.41
318.384
317.357
316.331
315.304
314.277
313.249
312.222
311.194
310.166
309.138
308.11
322.488
321.463
320.437
319.412
318.387
317.361
316.335
315.308
314.281
313.254
312.226
311.199
310.171
309.142
308.115
322.488
321.464
320.44
319.415
318.39
317.365
316.339
315.313
314.287
313.259
312.232
311.204
310.176
309.147
308.118
322.488
321.465
320.442
319.418
318.394
317.37
316.345
315.319
314.293
313.266
312.238
311.21
310.182
309.153
308.125
322.489
321.467
320.445
319.422
318.399
317.375
316.351
315.326
314.3
313.273
312.246
311.217
310.188
309.159
308.13
322.49
321.469
320.448
319.426
318.404
317.382
316.358
315.334
314.308
313.282
312.254
311.226
310.196
309.166
308.137
322.49
321.471
320.451
319.431
318.41
317.389
316.366
315.342
314.317
313.291
312.264
311.235
310.205
309.174
308.142
322.491
321.473
320.455
319.437
318.417
317.397
316.375
315.352
314.328
313.302
312.275
311.246
310.215
309.182
308.147
322.492
321.476
320.46
319.443
318.425
317.406
316.386
315.364
314.34
313.315
312.288
311.259
310.227
309.194
308.158
322.493
321.479
320.465
319.45
318.434
317.416
316.397
315.377
314.354
313.33
312.303
311.274
310.242
309.207
308.168
322.494
321.483
320.47
319.457
318.443
317.428
316.411
315.392
314.37
313.347
312.32
311.291
310.259
309.224
308.187
322.496
321.486
320.477
319.466
318.455
317.441
316.426
315.408
314.389
313.366
312.34
311.311
310.279
309.244
308.202
322.497
321.491
320.484
319.476
318.467
317.456
316.443
315.427
314.409
313.388
312.363
311.334
310.303
309.268
308.234
322.499
321.496
320.492
319.487
318.481
317.473
316.462
315.449
314.432
313.412
312.388
311.36
310.329
309.293
308.254
322.5
321.501
320.501
319.499
318.496
317.491
316.483
315.473
314.458
313.44
312.417
311.39
310.358
309.322
308.287
322.502
321.507
320.511
319.513
318.514
317.512
316.507
315.499
314.488
313.471
312.45
311.423
310.39
309.351
308.305
322.505
321.513
320.521
319.528
318.533
317.535
316.534
315.529
314.52
313.507
312.487
311.461
310.428
309.385
308.328
322.507
321.521
320.533
319.545
318.554
317.56
316.564
315.563
314.557
313.546
312.529
311.505
310.472
309.43
308.378
322.51
321.528
320.546
319.563
318.577
317.588
316.596
315.6
314.598
313.591
312.577
311.555
310.524
309.482
308.419
322.512
321.537
320.561
319.583
318.603
317.619
316.632
315.641
314.644
313.641
312.631
311.613
310.586
309.548
308.501
322.516
321.546
320.576
319.605
318.63
317.653
316.672
315.686
314.694
313.696
312.691
311.678
310.655
309.621
308.565
322.519
321.557
320.593
319.628
318.661
317.69
316.715
315.735
314.75
313.757
312.757
311.749
310.733
309.71
308.692
322.523
321.568
320.611
319.654
318.693
317.73
316.762
315.789
314.81
313.824
312.83
311.827
310.816
309.797
308.767
322.527
321.579
320.631
319.681
318.729
317.773
316.813
315.848
314.876
313.897
312.909
311.912
310.905
309.891
308.888
322.531
321.592
320.652
319.71
318.766
317.819
316.868
315.911
314.948
313.977
312.996
312.004
310.999
309.98
308.95
322.535
321.605
320.674
319.741
318.806
317.869
316.927
315.98
315.026
314.064
313.091
312.105
311.102
310.078
309.017
322.54
321.619
320.697
319.774
318.849
317.921
316.99
316.053
315.11
314.159
313.196
312.219
311.222
310.202
309.162
322.545
321.633
320.721
319.808
318.894
317.977
317.056
316.131
315.201
314.262
313.312
312.347
311.359
310.339
309.268
322.55
321.648
320.747
319.844
318.94
318.034
317.126
316.214
315.297
314.373
313.439
312.49
311.519
310.513
309.457
322.555
321.664
320.773
319.881
318.988
318.095
317.199
316.301
315.399
314.492
313.577
312.651
311.705
310.722
309.643
296.278
295.203
294.225
293.286
292.367
291.459
290.559
289.663
288.77
287.88
286.991
286.103
285.216
284.329
283.443
296.454
295.401
294.403
293.441
292.501
291.575
290.658
289.748
288.842
287.939
287.039
286.14
285.242
284.345
283.448
296.62
295.56
294.554
293.579
292.625
291.684
290.753
289.83
288.911
287.997
287.085
286.175
285.267
284.36
283.453
296.699
295.682
294.683
293.703
292.738
291.786
290.843
289.908
288.978
288.052
287.129
286.209
285.291
284.374
283.458
296.771
295.79
294.799
293.815
292.843
291.881
290.927
289.981
289.04
288.105
287.172
286.242
285.315
284.388
283.463
296.912
295.904
294.908
293.92
292.94
291.969
291.006
290.05
289.1
288.154
287.213
286.274
285.337
284.402
283.467
297.001
296.01
295.011
294.017
293.03
292.051
291.08
290.115
289.156
288.201
287.251
286.303
285.358
284.414
283.471
297.147
296.121
295.111
294.108
293.114
292.127
291.148
290.175
289.208
288.246
287.287
286.331
285.378
284.426
283.475
297.236
296.221
295.204
294.194
293.192
292.198
291.211
290.231
289.257
288.287
287.321
286.357
285.397
284.437
283.479
297.381
296.323
295.291
294.272
293.263
292.263
291.27
290.283
289.302
288.325
287.352
286.382
285.414
284.448
283.482
297.453
296.406
295.368
294.343
293.329
292.322
291.323
290.331
289.343
288.36
287.381
286.404
285.43
284.457
283.486
297.546
296.48
295.437
294.407
293.387
292.376
291.372
290.374
289.381
288.393
287.407
286.425
285.445
284.466
283.489
297.592
296.538
295.495
294.462
293.44
292.425
291.416
290.414
289.416
288.422
287.432
286.444
285.459
284.475
283.491
297.648
296.588
295.544
294.511
293.486
292.468
291.456
290.449
289.447
288.449
287.454
286.462
285.471
284.482
283.494
297.673
296.626
295.586
294.553
293.526
292.506
291.492
290.482
289.476
288.474
287.475
286.478
285.483
284.489
283.496
297.694
296.658
295.621
294.589
293.562
292.54
291.523
290.511
289.502
288.496
287.493
286.492
285.493
284.495
283.498
297.73
296.689
295.653
294.621
293.594
292.57
291.551
290.536
289.525
288.516
287.51
286.505
285.503
284.501
283.5
297.752
296.717
295.682
294.65
293.622
292.597
291.577
290.559
289.545
288.534
287.524
286.517
285.511
284.506
283.502
297.787
296.744
295.707
294.675
293.646
292.621
291.599
290.58
289.564
288.55
287.538
286.528
285.519
284.511
283.504
297.804
296.765
295.729
294.697
293.668
292.642
291.619
290.598
289.58
288.564
287.55
286.537
285.526
284.515
283.505
297.825
296.784
295.748
294.716
293.687
292.66
291.636
290.614
289.594
288.577
287.56
286.546
285.532
284.519
283.506
297.836
296.799
295.764
294.733
293.703
292.676
291.651
290.628
289.607
288.588
287.57
286.553
285.537
284.522
283.507
297.848
296.811
295.778
294.747
293.717
292.69
291.664
290.641
289.618
288.598
287.578
286.56
285.542
284.525
283.508
297.854
296.821
295.789
294.759
293.73
292.702
291.676
290.652
289.628
288.606
287.586
286.566
285.546
284.528
283.509
297.859
296.829
295.799
294.769
293.74
292.713
291.686
290.661
289.637
288.614
287.592
286.571
285.55
284.53
283.51
297.867
296.837
295.807
294.778
293.749
292.722
291.695
290.67
289.645
288.621
287.598
286.575
285.553
284.532
283.511
297.872
296.843
295.814
294.786
293.757
292.73
291.703
290.677
289.652
288.627
287.603
286.579
285.556
284.534
283.511
297.879
296.85
295.821
294.792
293.764
292.737
291.71
290.683
289.657
288.632
287.607
286.583
285.559
284.535
283.512
297.883
296.855
295.827
294.798
293.77
292.743
291.716
290.689
289.663
288.637
287.611
286.586
285.561
284.537
283.512
297.888
296.86
295.831
294.803
293.776
292.748
291.721
290.694
289.667
288.641
287.615
286.589
285.563
284.538
283.513
297.891
296.863
295.836
294.808
293.78
292.753
291.725
290.698
289.671
288.644
287.618
286.591
285.565
284.539
283.513
297.893
296.866
295.839
294.811
293.784
292.756
291.729
290.702
289.674
288.647
287.62
286.593
285.567
284.54
283.513
297.895
296.869
295.842
294.815
293.787
292.76
291.732
290.705
289.677
288.65
287.622
286.595
285.568
284.541
283.514
297.896
296.87
295.844
294.817
293.79
292.763
291.735
290.707
289.68
288.652
287.624
286.597
285.569
284.541
283.514
297.898
296.872
295.846
294.82
293.793
292.765
291.737
290.71
289.682
288.654
287.626
286.598
285.57
284.542
283.514
297.899
296.874
295.848
294.822
293.795
292.767
291.74
290.712
289.684
288.656
287.627
286.599
285.571
284.542
283.514
297.901
296.875
295.85
294.823
293.796
292.769