/*--------------------------------*- C++ -*----------------------------------*\
| =========                 |                                                 |
| \\      /  F ield         | OpenFOAM: The Open Source CFD Toolbox           |
|  \\    /   O peration     | Version:  5.x                                   |
|   \\  /    A nd           | Web:      www.OpenFOAM.org                      |
|    \\/     M anipulation  |                                                 |
\*---------------------------------------------------------------------------*/
FoamFile
{
    version     2.0;
    format      ascii;
    class       volScalarField;
    location    "2.1";
    object      gradTy;
}
// * * * * * * * * * * * * * * * * * * * * * * * * * * * * * * * * * * * * * //

dimensions      [0 -1 0 1 0 0 0];

internalField   nonuniform List<scalar> 
6300
(
32275.2
32225.6
32176
32126.6
32077.2
32028
31979
31930.3
31881.7
31833.5
31785.6
31738
31690.9
31644.1
31597.8
-0.0249771
-0.0750305
-0.125361
-0.176102
-0.227315
-0.278952
-0.330828
-0.382605
-0.433782
-0.483716
-0.531675
-0.576936
-0.618918
-0.657342
-0.692367
-0.0415167
-0.124733
-0.208466
-0.292971
-0.37838
-0.464643
-0.551477
-0.638322
-0.724323
-0.808348
-0.889074
-0.965143
-1.03541
-1.09925
-1.15685
-0.0578785
-0.17392
-0.290788
-0.408919
-0.528569
-0.649738
-0.772084
-0.894847
-1.0168
-1.13624
-1.25108
-1.35911
-1.45829
-1.54735
-1.62632
-0.0739501
-0.222276
-0.371842
-0.523337
-0.677224
-0.833637
-0.99225
-1.15216
-1.31176
-1.46868
-1.61989
-1.76187
-1.89125
-2.00552
-2.10414
-0.0895875
-0.269373
-0.450944
-0.635332
-0.823318
-1.01529
-1.21107
-1.40972
-1.60932
-1.80679
-1.99784
-2.17719
-2.33923
-2.47927
-2.5953
-0.104614
-0.31468
-0.527214
-0.743708
-0.965397
-1.1931
-1.42698
-1.66629
-1.90896
-2.15126
-2.38743
-2.60975
-2.80916
-2.977
-3.10801
-0.1188
-0.357506
-0.599502
-0.846858
-1.10142
-1.36467
-1.63741
-1.91943
-2.20892
-2.50179
-2.79082
-3.06518
-3.3106
-3.51151
-3.6558
-0.131872
-0.397027
-0.666402
-0.942755
-1.22872
-1.52669
-1.83849
-2.16502
-2.50544
-2.85607
-3.20882
-3.54946
-3.85648
-4.10258
-4.26162
-0.143527
-0.432308
-0.72629
-1.02899
-1.34398
-1.67479
-2.02478
-2.39665
-2.79168
-3.20814
-3.63884
-4.06727
-4.4632
-4.7806
-4.9651
-0.153447
-0.462367
-0.777422
-1.10289
-1.44334
-1.80366
-2.18911
-2.60506
-3.05639
-3.54591
-4.07105
-4.61745
-5.14831
-5.59133
-5.83652
-0.161333
-0.486267
-0.8181
-1.16177
-1.52276
-1.90734
-2.32286
-2.77801
-3.28283
-3.84797
-4.48189
-5.18304
-5.92106
-6.5996
-7.0071
-0.166945
-0.503244
-0.8469
-1.20328
-1.57853
-1.98
-2.41691
-2.90123
-3.44888
-4.08115
-4.82538
-5.71153
-6.75298
-7.87853
-8.74522
-0.170141
-0.512838
-0.862931
-1.22588
-1.60801
-2.01715
-2.46347
-2.96103
-3.53022
-4.20224
-5.02676
-6.08446
-7.50044
-9.41595
-11.6513
-0.170911
-0.515007
-0.866067
-1.22922
-1.61042
-2.01703
-2.45873
-2.94911
-3.50864
-4.17069
-4.99475
-6.09881
-7.74809
-10.6334
-16.8765
31555.8
31518
31480.5
31443.3
31406.5
31370.2
31334.2
31298.6
31263.4
31228.7
31194.5
31160.7
31127.5
31094.7
31062.4
31030.7
30999.5
30968.7
30938.6
30908.9
30879.7
30851.1
30822.9
30795.3
30768
30741.3
30714.9
30689
30663.4
30638.2
30613.3
30588.7
30564.4
30540.4
30516.6
30493
30469.6
30446.4
30423.3
30400.4
30377.5
30354.8
30332.1
30309.4
30286.8
30264.2
30241.6
30219
30196.3
30173.6
30150.8
30127.9
30104.9
30081.7
30058.3
30034.8
30011
29987.1
29962.8
29938.3
29913.5
29888.4
29863
29837.2
29811.1
29784.6
29757.7
29730.5
29702.8
29674.8
29646.3
29617.4
29588.1
29558.4
29528.2
29497.6
29466.6
29435.1
29403.2
29370.9
29338.1
29304.9
29271.3
29237.2
29202.7
29167.8
29132.5
29096.7
29060.6
29024.1
-0.721986
-0.74778
-0.773275
-0.79933
-0.826687
-0.855818
-0.886819
-0.919353
-0.952677
-0.985738
-1.01732
-1.04621
-1.07134
-1.09186
-1.10721
-1.11702
-1.12112
-1.11942
-1.1119
-1.09856
-1.07948
-1.05485
-1.02496
-0.99026
-0.951277
-0.908632
-0.862974
-0.814957
-0.765222
-0.714385
-0.663029
-0.611683
-0.560801
-0.510733
-0.461722
-0.413902
-0.367331
-0.322019
-0.27796
-0.235142
-0.193536
-0.153061
-0.113552
-0.0747395
-0.0362477
0.00236706
0.0415601
0.0817295
0.123155
0.165957
0.210089
0.255351
0.301427
0.34792
0.394384
0.440351
0.485346
0.528906
0.570617
0.610137
0.64723
0.681774
0.71375
0.743203
0.770202
0.794796
0.817002
0.836809
0.854214
0.869252
0.882023
0.892683
0.901422
0.908417
0.913792
0.917609
0.91988
0.920604
0.919809
0.917573
0.914013
0.909235
0.903271
0.896012
0.887179
0.876329
0.862911
0.846346
0.826123
0.801882
-1.20504
-1.24671
-1.28784
-1.33009
-1.37493
-1.42333
-1.47553
-1.53093
-1.58814
-1.64518
-1.69975
-1.74961
-1.79283
-1.82796
-1.8541
-1.87076
-1.87773
-1.87495
-1.86239
-1.84002
-1.80794
-1.76641
-1.71591
-1.65721
-1.59126
-1.51915
-1.44201
-1.36097
-1.27709
-1.19144
-1.105
-1.01871
-0.933344
-0.849519
-0.76762
-0.687833
-0.6102
-0.534693
-0.461288
-0.389982
-0.320775
-0.253587
-0.188179
-0.124094
-0.0606543
0.00297336
0.067656
0.134154
0.202997
0.274403
0.348266
0.424202
0.501622
0.579813
0.657998
0.735364
0.811084
0.884345
0.954401
1.02064
1.08265
1.14026
1.19348
1.24246
1.28737
1.32833
1.36535
1.39837
1.42732
1.45222
1.47325
1.49072
1.505
1.51646
1.52532
1.53166
1.53545
1.53661
1.53516
1.53126
1.52517
1.51716
1.50741
1.49577
1.48176
1.46456
1.44313
1.41636
1.38326
1.34314
-1.69106
-1.74634
-1.8007
-1.85702
-1.91794
-1.98526
-2.05951
-2.13979
-2.22375
-2.30805
-2.38885
-2.46245
-2.52584
-2.5769
-2.61453
-2.63832
-2.64827
-2.64447
-2.62688
-2.59538
-2.54993
-2.49077
-2.41859
-2.33451
-2.24003
-2.13683
-2.02661
-1.91097
-1.79146
-1.66956
-1.54672
-1.42434
-1.30364
-1.1855
-1.07045
-0.958646
-0.849997
-0.744343
-0.641599
-0.541818
-0.44513
-0.351583
-0.260945
-0.172574
-0.0853931
0.00198937
0.0910573
0.183115
0.279052
0.379203
0.483345
0.590792
0.700572
0.811574
0.922641
1.03259
1.1402
1.24423
1.3435
1.43704
1.52423
1.60486
1.6791
1.74735
1.81002
1.86733
1.91925
1.96556
2.00601
2.04053
2.06938
2.0931
2.11243
2.12801
2.14024
2.14917
2.15456
2.15614
2.15383
2.14787
2.13884
2.12741
2.11404
2.09872
2.08073
2.05869
2.03084
1.99527
1.95033
1.89484
-2.18223
-2.24731
-2.31074
-2.37737
-2.45177
-2.53722
-2.63487
-2.74336
-2.85891
-2.97599
-3.08832
-3.19004
-3.27659
-3.34522
-3.39489
-3.4258
-3.43863
-3.43384
-3.41139
-3.37081
-3.31164
-3.23389
-3.13837
-3.02675
-2.90133
-2.7646
-2.61896
-2.46653
-2.30923
-2.14897
-1.98772
-1.82752
-1.67017
-1.51697
-1.36854
-1.22484
-1.0854
-0.94972
-0.817557
-0.689108
-0.56487
-0.44529
-0.330345
-0.219234
-0.110316
-0.00131192
0.110266
0.226606
0.349156
0.478383
0.613787
0.754152
0.897894
1.04337
1.18903
1.33332
1.4746
1.6111
1.74099
1.86274
1.9754
2.0788
2.1735
2.26043
2.34051
2.41421
2.48136
2.54133
2.59338
2.63716
2.67301
2.70195
2.72536
2.7445
2.76004
2.77187
2.77927
2.7814
2.77786
2.76903
2.75608
2.74052
2.72361
2.70563
2.6856
2.6613
2.62973
2.58775
2.53264
2.46252
-2.68188
-2.7506
-2.81612
-2.88651
-2.96969
-3.07159
-3.19461
-3.33677
-3.49188
-3.65075
-3.80307
-3.93946
-4.05316
-4.14081
-4.20225
-4.23933
-4.25436
-4.24865
-4.22199
-4.173
-4.10009
-4.00257
-3.88133
-3.73889
-3.57889
-3.40518
-3.22107
-3.02909
-2.83127
-2.62977
-2.42721
-2.22657
-2.0307
-1.84155
-1.65981
-1.48488
-1.31539
-1.15001
-0.988145
-0.830313
-0.677879
-0.532298
-0.394195
-0.262711
-0.135335
-0.00829254
0.122646
0.261185
0.409679
0.5687
0.737126
0.912689
1.09275
1.27496
1.45742
1.63841
1.81595
1.98752
2.15024
2.30156
2.43994
2.56534
2.67912
2.78342
2.88026
2.97057
3.05388
3.12855
3.1927
3.24526
3.28666
3.31882
3.34451
3.36624
3.38525
3.40102
3.41164
3.4149
3.40956
3.39619
3.37712
3.35567
3.33476
3.31555
3.29669
3.27445
3.2437
3.1992
3.13663
3.05309
-3.1959
-3.25852
-3.31451
-3.37729
-3.4607
-3.57564
-3.72691
-3.91165
-4.11956
-4.3351
-4.5409
-4.7217
-4.86737
-4.9743
-5.04481
-5.08475
-5.10006
-5.09373
-5.06488
-5.00974
-4.92409
-4.80553
-4.6549
-4.47639
-4.27626
-4.0608
-3.83458
-3.60008
-3.35866
-3.11215
-2.86393
-2.61877
-2.38153
-2.15546
-1.94125
-1.73703
-1.53942
-1.34518
-1.15286
-0.963665
-0.780926
-0.60843
-0.448395
-0.30014
-0.159727
-0.0207285
0.124247
0.281609
0.455236
0.645681
0.850412
1.06498
1.28478
1.50647
1.72819
1.94876
2.1662
2.37697
2.57624
2.75933
2.9235
3.06895
3.19873
3.31754
3.42974
3.53738
3.63922
3.73131
3.80909
3.86983
3.914
3.94542
3.96975
3.99229
4.01553
4.038
4.05501
4.06116
4.05323
4.03194
4.002
3.97043
3.94383
3.92534
3.91302
3.90019
3.87777
3.837
3.7711
3.67586
-3.73479
-3.77597
-3.80312
-3.83839
-3.90634
-4.0274
-4.21109
-4.45327
-4.73638
-5.03361
-5.31485
-5.55467
-5.7375
-5.86038
-5.93151
-5.96579
-5.97706
-5.9714
-5.94575
-5.89055
-5.79563
-5.65477
-5.46874
-5.24513
-4.99581
-4.73202
-4.46009
-4.18112
-3.89343
-3.59707
-3.29629
-2.99962
-2.71631
-2.45232
-2.20831
-1.97965
-1.75859
-1.53754
-1.31305
-1.08767
-0.869162
-0.666539
-0.48554
-0.326163
-0.181961
-0.0416374
0.108156
0.278763
0.476746
0.702273
0.949734
1.20996
1.47433
1.73817
2.00091
2.26388
2.52634
2.78331
3.02585
3.24467
3.43437
3.59547
3.73452
3.86153
3.98617
4.11294
4.23899
4.35506
4.45045
4.51866
4.56016
4.58264
4.598
4.61778
4.64735
4.68328
4.71446
4.72813
4.7166
4.68061
4.62965
4.57848
4.54166
4.52669
4.53051
4.54016
4.53867
4.51137
4.44816
4.3436
-4.31774
-4.31353
-4.27996
-4.25227
-4.27531
-4.38882
-4.61089
-4.9358
-5.33272
-5.75502
-6.14835
-6.46961
-6.69384
-6.82088
-6.87118
-6.87987
-6.87833
-6.87774
-6.86907
-6.82848
-6.73321
-6.56895
-6.33664
-6.05079
-5.73611
-5.41488
-5.09567
-4.77461
-4.44063
-4.08824
-3.72267
-3.36114
-3.02322
-2.72031
-2.4532
-2.21127
-1.9777
-1.73478
-1.47447
-1.20174
-0.934489
-0.693482
-0.491521
-0.33031
-0.198585
-0.0761688
0.0620944
0.236487
0.458566
0.727246
1.03064
1.34893
1.6646
1.97141
2.27329
2.57971
2.89434
3.21037
3.50957
3.7719
3.98636
4.15368
4.28758
4.40887
4.53946
4.68946
4.85307
5.0085
5.13084
5.20586
5.23362
5.23003
5.21981
5.22909
5.26994
5.33531
5.39906
5.43132
5.41513
5.35075
5.25756
5.16578
5.10799
5.10095
5.13954
5.19612
5.23671
5.23738
5.18471
5.07412
-4.98004
-4.89311
-4.74808
-4.59275
-4.51356
-4.59335
-4.86196
-5.31401
-5.89187
-6.5175
-7.085
-7.52363
-7.7895
-7.89126
-7.87014
-7.80803
-7.77763
-7.7951
-7.83773
-7.84455
-7.76956
-7.58055
-7.28109
-6.89741
-6.48535
-6.09433
-5.73346
-5.38624
-5.01389
-4.59795
-4.14286
-3.68828
-3.27939
-2.93643
-2.6616
-2.43058
-2.21006
-1.9569
-1.65363
-1.30786
-0.961992
-0.66422
-0.438895
-0.292112
-0.201958
-0.133718
-0.0362431
0.125233
0.372914
0.701808
1.0896
1.49114
1.86706
2.21112
2.53847
2.88305
3.2596
3.66093
4.04559
4.36721
4.60534
4.75913
4.85784
4.94187
5.06378
5.24537
5.47783
5.70851
5.87824
5.95998
5.95105
5.8858
5.81235
5.79374
5.85602
5.98847
6.1278
6.20305
6.18188
6.0612
5.88224
5.70299
5.6001
5.60837
5.72159
5.87402
5.9912
6.03918
6.00369
5.8926
-5.78672
-5.55594
-5.23059
-4.82312
-4.5224
-4.52538
-4.84818
-5.51026
-6.38138
-7.36285
-8.20633
-8.82555
-9.12058
-9.13772
-8.92721
-8.68965
-8.60711
-8.67538
-8.85712
-8.97759
-8.96929
-8.7504
-8.34604
-7.78412
-7.20356
-6.72965
-6.35089
-6.03341
-5.64931
-5.16343
-4.56176
-3.94908
-3.44013
-3.054
-2.80651
-2.63445
-2.48913
-2.25094
-1.8938
-1.41397
-0.920142
-0.530609
-0.273226
-0.172513
-0.173978
-0.233644
-0.227079
-0.110563
0.169849
0.591008
1.12817
1.66955
2.11463
2.47405
2.77793
3.1394
3.58818
4.13444
4.67132
5.08161
5.34454
5.44262
5.44791
5.41897
5.50073
5.72656
6.10367
6.49473
6.75075
6.84306
6.74791
6.55171
6.32422
6.24021
6.33934
6.62999
6.94709
7.11188
7.09018
6.85389
6.50563
6.12859
5.93047
5.96305
6.24557
6.60111
6.84383
6.9597
6.93011
6.83567
-6.86008
-6.35444
-5.83094
-4.89953
-4.09392
-3.99704
-4.34612
-5.40579
-6.71229
-8.40717
-9.65088
-10.5946
-10.8521
-10.7123
-10.0236
-9.34836
-9.21973
-9.39256
-9.96507
-10.2964
-10.4726
-10.1876
-9.63817
-8.69794
-7.76841
-7.22821
-6.88029
-6.77676
-6.43151
-5.89585
-4.99667
-4.06065
-3.4241
-2.97202
-2.84291
-2.79992
-2.90201
-2.71632
-2.3107
-1.54023
-0.728038
-0.206597
0.118167
0.0943267
-0.0620908
-0.428844
-0.576123
-0.58222
-0.235678
0.313433
1.161
1.98702
2.48597
2.81738
2.93491
3.27047
3.77685
4.62197
5.4799
6.0088
6.32176
6.26034
6.08788
5.73727
5.73087
5.9906
6.71014
7.47617
7.85979
7.99688
7.69109
7.26347
6.63031
6.42379
6.54769
7.23429
7.98657
8.29015
8.30835
7.80871
7.17138
6.29744
5.92955
5.95873
6.66525
7.49153
7.87996
8.09053
7.95082
7.96176
-8.46887
-7.17847
-7.01858
-4.79459
-2.64456
-2.82621
-2.82055
-4.94567
-6.48373
-10.101
-11.5272
-13.3516
-13.1557
-13.077
-11.1002
-9.21983
-9.39808
-9.53402
-11.4202
-11.8383
-12.6398
-12.0055
-11.4929
-9.5962
-7.77249
-7.44972
-7.0576
-7.86802
-7.48772
-7.15161
-5.48446
-3.74086
-3.1423
-2.4248
-2.75515
-2.75635
-3.72919
-3.49828
-3.25288
-1.7265
-0.117184
0.400687
1.01161
0.55214
0.352707
-0.940075
-1.1285
-1.56171
-0.932978
-0.393982
1.22477
2.7754
3.09848
3.46864
2.77787
3.15546
3.47768
5.09092
6.76219
7.2468
7.83798
7.23783
6.98429
5.55977
5.5776
5.59234
7.24949
9.0081
9.32365
9.78825
8.80952
8.27102
6.32184
6.13138
5.94558
7.74382
9.67201
9.8792
10.272
8.96166
8.17772
5.73743
5.35674
4.97892
6.91239
9.01236
9.17216
9.72571
8.75459
9.41092
-11.5742
-6.37451
-11.1783
-4.58285
2.16281
-1.92456
1.77396
-5.33028
-3.26043
-14.9493
-12.8296
-19.0169
-15.2899
-18.1744
-12.0373
-6.12616
-9.63667
-7.15442
-14.9887
-12.8276
-16.8737
-13.6478
-15.3399
-10.3888
-5.6146
-7.77048
-5.50269
-10.6734
-8.47978
-10.3235
-6.08185
-1.77172
-3.0313
-0.368273
-3.14097
-1.31326
-6.28944
-4.30091
-6.03943
-2.03204
2.06552
0.874102
3.44648
0.635538
2.34187
-3.04168
-1.32858
-4.07067
-1.5014
-2.65661
1.3862
5.331
3.64271
5.64708
1.08185
3.11949
1.31879
5.47559
9.75252
8.3306
11.0689
7.71534
9.566
3.30432
5.42776
2.82799
7.64162
12.6169
10.5717
13.6569
9.29284
11.3087
3.47956
5.83104
2.48518
8.06495
13.8344
11.1996
14.6871
9.35525
11.568
2.21036
4.77866
0.669694
6.91865
13.3259
9.8963
13.5553
7.21371
11.9705
-22.0655
8.83471
-31.7522
-4.58711
22.57
-12.2344
21.9245
-18.9254
19.7755
-39.6818
-2.16953
-38.959
-7.90315
-36.2628
-12.649
10.5349
-18.5047
10.0811
-32.9504
-4.8783
-31.5794
-8.20789
-28.7531
-10.9266
6.52278
-14.4612
6.76374
-24.0831
-3.65798
-22.2585
-6.77768
8.21805
-8.56868
9.51594
-10.1512
9.92757
-18.8789
0.263467
-17.1001
-2.46734
11.8646
-4.07218
13.6336
-5.78584
14.5406
-15.3625
4.88677
-14.2281
3.29336
-12.4045
1.68878
15.9984
-1.13043
17.2859
-10.1224
8.61072
-9.41899
5.68729
20.9493
3.4238
23.0721
0.698843
23.8295
-11.0258
12.0793
-10.6118
7.80091
26.3353
4.43218
28.2522
0.589049
28.5234
-14.0229
13.7348
-13.8281
8.11292
30.0989
3.70385
31.8022
-1.11537
31.6195
-18.4899
13.8159
-18.5548
6.69701
31.8047
0.412777
31.786
-10.3087
21.5738
28983.5
28938.7
28893.4
28847.7
28801.5
28754.9
28707.9
28660.7
28613.1
28565.4
28517.4
28469.2
28421
28372.6
28324.2
0.770613
0.730525
0.684979
0.634843
0.581196
0.525177
0.467848
0.410107
0.352638
0.295901
0.240143
0.18543
0.131676
0.0786814
0.0261721
1.29092
1.22352
1.14665
1.0619
0.971249
0.876718
0.780183
0.683194
0.586908
0.492074
0.399077
0.307983
0.21861
0.130592
0.0434329
1.82158
1.72592
1.61613
1.49481
1.36511
1.23019
1.0929
0.955514
0.819667
0.686368
0.556075
0.428793
0.304178
0.181635
0.0603967
2.36798
2.24245
2.09711
1.93609
1.76415
1.586
1.40566
1.22623
1.04982
0.877608
0.710025
0.546909
0.387658
0.231362
0.0769118
2.93681
2.77879
2.59381
2.38828
2.1694
1.94395
1.71744
1.49387
1.2757
1.06415
0.859456
0.661123
0.468158
0.279229
0.0927954
3.53698
3.34225
3.11118
2.85391
2.58132
2.303
2.0263
1.75605
1.49488
1.24377
1.00246
0.769922
0.544589
0.324581
0.107829
4.18057
3.94225
3.6549
3.33501
2.99911
2.66059
2.3288
2.00915
1.70398
1.4135
1.13663
0.871458
0.615656
0.366653
0.12176
4.88452
4.59118
4.23112
3.83211
3.41954
3.01161
2.61933
2.24787
1.89838
1.5696
1.25903
0.963566
0.679882
0.404587
0.134307
5.67424
5.30617
4.84576
4.34233
3.83497
3.34691
2.88916
2.46475
2.0721
1.70746
1.36627
1.04384
0.735673
0.437478
0.145177
6.59276
6.11262
5.50271
4.85583
4.23027
3.65139
3.12555
2.6499
2.21786
1.82187
1.4547
1.10982
0.781451
0.464447
0.154087
7.72715
7.04935
6.19697
5.34847
4.57857
3.90234
3.31148
2.79139
2.32756
1.90746
1.5208
1.15923
0.815829
0.484749
0.160804
9.28347
8.16067
6.88708
5.76305
4.83332
4.06776
3.4265
2.87656
2.39349
1.95956
1.56178
1.19041
0.837848
0.497887
0.165174
11.8223
9.42215
7.42673
5.98297
4.92363
4.10868
3.4501
2.89483
2.41026
1.97545
1.57628
1.20273
0.847225
0.503748
0.167167
16.5997
10.2785
7.4149
5.81833
4.76915
3.99298
3.37028
2.84238
2.37724
1.95565
1.56512
1.19693
0.844527
0.502681
0.166901
-0.169687
-0.51109
-0.858688
-1.21698
-1.5911
-1.98721
-2.41319
-2.87969
-3.40216
-4.00492
-4.72993
-5.65843
-6.96968
-9.11945
-13.4268
-0.167005
-0.50274
-0.84371
-1.19362
-1.55653
-1.93702
-2.34044
-2.77317
-3.24289
-3.75847
-4.32816
-4.94969
-5.56353
-5.83739
-4.14912
-0.163118
-0.490729
-0.822485
-1.16119
-1.50971
-1.87086
-2.24729
-2.64093
-3.05168
-3.4743
-3.89025
-4.24618
-4.39342
-3.91744
-1.69507
-0.158267
-0.475817
-0.796394
-1.12191
-1.45405
-1.79404
-2.14215
-2.49673
-2.85213
-3.19457
-3.49386
-3.6876
-3.65594
-3.21008
-2.28515
-0.1527
-0.458779
-0.766836
-1.07797
-1.39288
-1.71152
-2.03249
-2.35192
-2.66145
-2.9446
-3.17059
-3.28563
-3.2057
-2.83536
-2.23034
-0.146654
-0.440344
-0.735101
-1.03136
-1.32907
-1.62734
-1.92385
-2.21394
-2.48902
-2.7341
-2.92414
-3.01917
-2.95681
-2.6235
-1.67671
-0.140336
-0.421145
-0.702284
-0.983688
-1.26481
-1.54431
-1.81963
-2.08636
-2.33735
-2.56164
-2.74341
-2.86205
-2.89582
-2.83753
-2.79425
-0.133914
-0.401692
-0.669243
-0.936159
-1.20161
-1.46412
-1.72133
-1.96967
-2.20417
-2.41856
-2.60627
-2.7638
-2.89857
-3.04098
-3.23857
-0.127519
-0.382372
-0.636606
-0.889593
-1.14038
-1.38755
-1.62912
-1.86254
-2.08492
-2.2939
-2.4899
-2.68127
-2.89583
-3.20594
-3.79404
-0.121246
-0.363461
-0.604796
-0.844504
-1.0816
-1.3148
-1.54251
-1.76302
-1.9749
-2.17815
-2.37656
-2.58251
-2.82659
-3.17764
-3.79857
-0.115158
-0.345139
-0.574082
-0.801181
-1.02546
-1.24578
-1.46084
-1.66942
-1.87081
-2.06567
-2.25785
-2.45714
-2.68288
-2.96176
-3.28123
-0.109294
-0.327517
-0.544617
-0.759766
-0.972024
-1.18034
-1.3836
-1.58076
-1.77115
-1.95496
-2.13406
-2.31327
-2.5021
-2.7175
-2.99867
-0.103678
-0.310654
-0.516476
-0.720315
-0.921267
-1.11835
-1.31051
-1.49672
-1.67598
-1.8474
-2.01007
-2.16261
-2.30271
-2.4274
-2.53188
-0.0983175
-0.294573
-0.489679
-0.682825
-0.873145
-1.05971
-1.2415
-1.41742
-1.58616
-1.74581
-1.89296
-2.0205
-2.11387
-2.15118
-2.16803
-0.0932141
-0.279272
-0.464212
-0.647255
-0.827582
-1.00432
-1.1765
-1.34306
-1.50256
-1.65278
-1.78933
-1.90201
-1.96379
-1.88903
-1.34093
-0.0883612
-0.26473
-0.44003
-0.613529
-0.784461
-0.952024
-1.11536
-1.27351
-1.42533
-1.56915
-1.70212
-1.81878
-1.90839
-1.95546
-1.99552
-0.0837478
-0.25091
-0.41707
-0.581543
-0.74363
-0.902611
-1.05775
-1.20831
-1.35358
-1.49293
-1.62613
-1.75423
-1.88239
-2.02665
-2.22239
-0.0793597
-0.23777
-0.395251
-0.551175
-0.704906
-0.855809
-1.00326
-1.14672
-1.28586
-1.42088
-1.55354
-1.68955
-1.84505
-2.06194
-2.44472
-0.0751802
-0.225257
-0.374484
-0.522289
-0.668098
-0.811345
-0.951489
-1.08808
-1.22091
-1.35038
-1.47848
-1.61124
-1.76494
-1.98189
-2.37656
-0.0711917
-0.213319
-0.354677
-0.49475
-0.633023
-0.76898
-0.902123
-1.03199
-1.15823
-1.28075
-1.40007
-1.51827
-1.64078
-1.77827
-1.93149
-0.0673755
-0.201898
-0.335734
-0.468424
-0.599508
-0.728517
-0.854973
-0.97836
-1.09807
-1.21323
-1.32233
-1.42221
-1.5061
-1.56358
-1.6242
-0.0637127
-0.190937
-0.31756
-0.443178
-0.567389
-0.689777
-0.809898
-0.927222
-1.04099
-1.14984
-1.25089
-1.33718
-1.38963
-1.34661
-0.963625
-0.060184
-0.180379
-0.300057
-0.418875
-0.536491
-0.652561
-0.766712
-0.878497
-0.987252
-1.09177
-1.1896
-1.27556
-1.33934
-1.3656
-1.37538
-0.0567701
-0.170165
-0.283126
-0.395371
-0.506626
-0.616628
-0.725118
-0.831822
-0.93639
-1.03826
-1.13643
-1.22926
-1.31498
-1.39596
-1.49653
-0.0534521
-0.160237
-0.266668
-0.372521
-0.47759
-0.581698
-0.684715
-0.786579
-0.887337
-0.987226
-1.08688
-1.18783
-1.29378
-1.41259
-1.5584
-0.0502118
-0.15054
-0.250588
-0.350183
-0.44918
-0.54748
-0.645064
-0.742053
-0.838828
-0.936277
-1.0363
-1.14285
-1.26355
-1.41034
-1.58871
-0.0470329
-0.141024
-0.234799
-0.328228
-0.421215
-0.513715
-0.605778
-0.697624
-0.789794
-0.883461
-0.981102
-1.08795
-1.2151
-1.38605
-1.65215
-0.0439008
-0.131646
-0.219227
-0.30655
-0.39355
-0.48021
-0.566597
-0.652922
-0.739663
-0.82781
-0.919414
-1.01887
-1.13612
-1.29557
-1.56796
-0.0408035
-0.122369
-0.203812
-0.285067
-0.366085
-0.446854
-0.527413
-0.607882
-0.688497
-0.769682
-0.852183
-0.937361
-1.02772
-1.12655
-1.22355
-0.0377308
-0.113163
-0.188508
-0.263718
-0.338757
-0.413603
-0.48825
-0.562693
-0.636878
-0.710566
-0.783005
-0.852181
-0.913355
-0.958691
-1.00409
-0.0346746
-0.104004
-0.173278
-0.242462
-0.311529
-0.380451
-0.449186
-0.51764
-0.585551
-0.652245
-0.716008
-0.772496
-0.809886
-0.790703
-0.568961
-0.0316278
-0.0948732
-0.15809
-0.22126
-0.284368
-0.34739
-0.41028
-0.47292
-0.535019
-0.595888
-0.653981
-0.70602
-0.74561
-0.763304
-0.770008
-0.0285839
-0.0857506
-0.142915
-0.200076
-0.257235
-0.314387
-0.371509
-0.428536
-0.485292
-0.541392
-0.596078
-0.648134
-0.696453
-0.743468
-0.809813
-0.0255371
-0.0766187
-0.127723
-0.178869
-0.230076
-0.281368
-0.332769
-0.3843
-0.435976
-0.487815
-0.539922
-0.592788
-0.648115
-0.710128
-0.785073
-0.0224816
-0.0674601
-0.112486
-0.157594
-0.202828
-0.248239
-0.293902
-0.339928
-0.386504
-0.433994
-0.48316
-0.535671
-0.595055
-0.667726
-0.762182
-0.019412
-0.0582583
-0.0971739
-0.13621
-0.175427
-0.214904
-0.254749
-0.295136
-0.336356
-0.378954
-0.424006
-0.47372
-0.532692
-0.610116
-0.722893
-0.0163233
-0.0489986
-0.0817619
-0.114677
-0.147819
-0.18128
-0.215187
-0.249728
-0.28521
-0.322158
-0.361547
-0.405285
-0.457439
-0.527876
-0.648375
-0.0132115
-0.0396683
-0.0662286
-0.0929661
-0.119963
-0.147317
-0.175151
-0.203633
-0.233003
-0.263615
-0.296003
-0.330955
-0.369416
-0.410795
-0.440498
-0.010073
-0.0302571
-0.0505573
-0.071054
-0.0918335
-0.112991
-0.134633
-0.156888
-0.179894
-0.203787
-0.228617
-0.254139
-0.279297
-0.301756
-0.325877
-0.00690488
-0.0207566
-0.034735
-0.0489259
-0.0634174
-0.0782994
-0.093662
-0.109588
-0.126132
-0.143257
-0.160692
-0.177533
-0.190985
-0.191504
-0.141453
-0.00370475
-0.0111596
-0.0187511
-0.0265702
-0.0347069
-0.0432481
-0.052271
-0.0618302
-0.0719289
-0.0824627
-0.0931225
-0.103242
-0.111591
-0.116317
-0.118696
-0.000470291
-0.0014597
-0.00259578
-0.00397544
-0.00569312
-0.00783697
-0.0104809
-0.0136693
-0.01739
-0.0215348
-0.0258724
-0.0301424
-0.0346531
-0.0427144
-0.0716204
0.00280075
0.00834985
0.0137415
0.0188716
0.0236383
0.0279459
0.0317132
0.0348882
0.0374751
0.0395707
0.0413855
0.0431631
0.044809
0.0454197
0.0467392
0.00611075
0.0182762
0.0302728
0.041988
0.0533094
0.0641278
0.0743435
0.0838799
0.0927114
0.100912
0.108722
0.116602
0.125044
0.133117
0.128396
0.00946214
0.0283268
0.0470114
0.065394
0.0833497
0.100751
0.11747
0.133387
0.148415
0.162561
0.17606
0.189693
0.205588
0.229754
0.28257
0.0128573
0.0385091
0.063971
0.0891119
0.113794
0.13787
0.161176
0.183535
0.20476
0.224696
0.243348
0.261253
0.28044
0.306548
0.349535
0.0162984
0.04883
0.0811641
0.113163
0.144678
0.175544
0.205564
0.234496
0.262028
0.287758
0.311201
0.331957
0.350538
0.371672
0.415467
0.0197868
0.0592941
0.0986003
0.137564
0.176031
0.213825
0.250728
0.286451
0.320575
0.352445
0.380962
0.404205
0.418911
0.421106
0.418914
0.0233233
0.069904
0.116284
0.162323
0.207868
0.252743
0.296731
0.339538
0.380714
0.419495
0.454425
0.482412
0.496018
0.473626
0.332719
0.0269077
0.0806587
0.134214
0.187438
0.240186
0.292295
0.343575
0.393777
0.442541
0.489254
0.532748
0.570631
0.598169
0.608486
0.610808
0.0305388
0.0915545
0.152383
0.212897
0.272962
0.33244
0.391184
0.449035
0.505814
0.561279
0.615005
0.666062
0.71232
0.74893
0.760522
0.0342146
0.102585
0.17078
0.238678
0.306161
0.373111
0.439429
0.505055
0.570021
0.634543
0.699152
0.764853
0.833211
0.906785
0.996239
0.0379328
0.113744
0.189389
0.264759
0.339742
0.414237
0.488171
0.561549
0.634557
0.707773
0.782577
0.861828
0.950517
1.05365
1.15268
0.0416905
0.125021
0.208199
0.291119
0.373676
0.455767
0.537315
0.618318
0.698966
0.779924
0.862947
0.952276
1.05783
1.20341
1.45379
0.0454847
0.136409
0.227194
0.317741
0.407944
0.497688
0.586853
0.675348
0.763179
0.850665
0.938969
1.03149
1.13738
1.28043
1.5189
0.049312
0.147897
0.24636
0.344611
0.442544
0.540022
0.636871
0.732853
0.82765
0.920862
1.0121
1.10143
1.19115
1.29123
1.4302
0.0531679
0.159473
0.26568
0.371712
0.477468
0.582805
0.687502
0.791194
0.893239
0.992454
1.08657
1.17113
1.23776
1.27505
1.30634
0.0570467
0.171119
0.285127
0.399012
0.512693
0.626043
0.738843
0.850691
0.960809
1.06761
1.1677
1.2533
1.30478
1.26305
0.900505
0.0609408
0.182815
0.304663
0.426459
0.548157
0.669673
0.790855
0.911401
1.0307
1.14745
1.25891
1.35918
1.43655
1.47387
1.49362
0.0648412
0.194531
0.324241
0.453982
0.583753
0.713544
0.843318
0.972987
1.10236
1.23099
1.35791
1.48099
1.59616
1.69692
1.77003
0.0687374
0.206235
0.343803
0.481487
0.619343
0.757435
0.895861
1.03479
1.17454
1.31574
1.45959
1.60831
1.7658
1.9392
2.15068
0.0726181
0.217893
0.363285
0.50888
0.654774
0.8011
0.948062
1.09603
1.24572
1.39866
1.5579
1.72956
1.9244
2.15505
2.39635
0.0764727
0.229471
0.382631
0.536067
0.68991
0.844329
0.99957
1.15607
1.31467
1.4772
1.64761
1.83471
2.05817
2.36352
2.86894
0.0802907
0.240938
0.401786
0.562974
0.724651
0.88699
1.05021
1.21465
1.3809
1.55027
1.72575
1.91463
2.13507
2.43306
2.9258
0.0840631
0.252268
0.420707
0.589542
0.758934
0.929041
1.10001
1.27196
1.44497
1.61911
1.7946
1.97265
2.15813
2.36738
2.63712
0.0877815
0.263434
0.439354
0.615725
0.79272
0.970495
1.14913
1.32854
1.50827
1.687
1.86168
2.0255
2.16471
2.25971
2.35237
0.0914377
0.274413
0.457689
0.641473
0.825966
1.01135
1.19771
1.38491
1.57225
1.75772
1.9363
2.09544
2.20199
2.15368
1.55309
0.0950246
0.285183
0.475672
0.666726
0.858593
1.05152
1.2457
1.44118
1.63752
1.83324
2.02441
2.2019
2.3468
2.43119
2.4938
0.0985355
0.295721
0.493259
0.691412
0.890481
1.09081
1.2928
1.49683
1.70322
1.91191
2.12203
2.33098
2.53364
2.72383
2.89677
0.101966
0.306013
0.510417
0.715459
0.921486
1.12895
1.33846
1.55085
1.7673
1.98958
2.22045
2.46443
2.72914
3.02843
3.39831
0.105316
0.316055
0.527129
0.738816
0.951487
1.16567
1.38212
1.60203
1.82733
2.06128
2.30977
2.58346
2.9006
3.28402
3.70852
0.108592
0.325862
0.54341
0.761483
0.980433
1.20079
1.42336
1.64947
1.88133
2.12287
2.38157
2.67229
3.02603
3.51106
4.29616
0.111806
0.335472
0.55932
0.783533
1.00839
1.23436
1.46214
1.69291
1.92858
2.17253
2.43111
2.71734
3.06028
3.52968
4.30561
0.11498
0.344952
0.574971
0.805123
1.03558
1.26665
1.49883
1.73291
1.97007
2.21201
2.46143
2.723
3.00666
3.33542
3.74362
0.118146
0.354393
0.590522
0.826491
1.06233
1.29815
1.53418
1.77077
2.0082
2.24628
2.48327
2.71329
2.92171
3.08597
3.26758
0.12134
0.363912
0.606174
0.84794
1.08907
1.32947
1.56914
1.80802
2.04585
2.28129
2.50993
2.71853
2.86738
2.82444
2.059
0.124605
0.373642
0.622159
0.869818
1.11629
1.3613
1.6046
1.84599
2.08512
2.32098
2.55047
2.76524
2.94621
3.0646
3.17854
0.127989
0.383725
0.63873
0.892501
1.14452
1.39429
1.64137
1.8855
2.12664
2.36506
2.6012
2.83538
3.06843
3.30781
3.58794
0.131537
0.394307
0.656146
0.916382
1.17429
1.42911
1.68017
1.92704
2.17001
2.41068
2.65322
2.90627
3.18621
3.52266
3.97121
0.135294
0.405527
0.67466
0.94186
1.20617
1.46652
1.72183
1.97127
2.21493
2.45496
2.6979
2.95843
3.26467
3.65961
4.16373
0.139296
0.417501
0.694499
0.969322
1.24078
1.50741
1.76753
2.01949
2.26232
2.49717
2.73029
2.97877
3.28148
3.72067
4.47149
0.143561
0.430302
0.71583
0.999098
1.27871
1.55277
1.81885
2.074
2.3152
2.54053
2.75196
2.9614
3.20343
3.56523
4.27884
0.148087
0.443935
0.738709
1.03139
1.32045
1.60365
1.87772
2.13816
2.37905
2.59347
2.77494
2.92131
3.04214
3.16538
3.29234
0.152837
0.458299
0.763023
1.06615
1.36622
1.66081
1.94602
2.21584
2.46123
2.66922
2.82223
2.8989
2.87908
2.76285
2.66823
0.157727
0.47316
0.78842
1.10301
1.41577
1.72444
2.02497
2.31042
2.56933
2.78308
2.92246
2.94342
2.78287
2.34522
1.38582
0.162627
0.488125
0.814256
1.1411
1.46811
1.79367
2.11433
2.42341
2.70872
2.94853
3.10483
3.11394
2.87898
2.28982
1.36186
0.167353
0.502633
0.839571
1.17903
1.5214
1.86627
2.21168
2.55284
2.87968
3.1719
3.38934
3.45388
3.22095
2.46961
1.1321
0.171673
0.515971
0.863109
1.21489
1.57292
1.93845
2.31192
2.69218
3.07464
3.44712
3.77994
4.00028
3.92278
3.05634
0.0929932
0.175323
0.527319
0.883392
1.24636
1.61919
2.00505
2.40741
2.82996
3.27648
3.74982
4.24853
4.75337
5.17231
5.09915
2.69852
0.17803
0.535813
0.898852
1.27094
1.65634
2.06015
2.48882
2.95108
3.45967
4.03489
4.71275
5.56589
6.76327
8.75847
12.9582
12.6429
8.35186
6.37186
5.21118
4.39707
3.75665
3.21659
2.74103
2.30999
1.91109
1.53587
1.17815
0.833058
0.496527
0.164967
2.00707
4.57859
4.73694
4.37704
3.91977
3.46235
3.02624
2.61413
2.22385
1.85215
1.49567
1.15126
0.815969
0.487066
0.161939
-0.696177
2.48102
3.46179
3.61037
3.44246
3.15314
2.81917
2.47201
2.12477
1.7826
1.44705
1.11798
0.794417
0.474963
0.158038
0.358171
1.90867
2.7644
3.06336
3.04932
2.87484
2.62118
2.32991
2.02212
1.7084
1.39389
1.08085
0.769976
0.461085
0.153538
0.833191
1.8187
2.45354
2.73358
2.76747
2.65144
2.44925
2.19924
1.92354
1.63469
1.33966
1.04218
0.744126
0.446254
0.148705
1.2264
1.97213
2.38896
2.57462
2.58964
2.48778
2.31047
2.08636
1.83405
1.56524
1.28708
1.00388
0.71812
0.431182
0.143768
2.25041
2.35384
2.48477
2.53408
2.49289
2.37643
2.20414
1.99301
1.75598
1.50222
1.23796
0.967309
0.692908
0.416423
0.13891
2.7844
2.71632
2.63716
2.55628
2.44831
2.30378
2.12472
1.91759
1.68947
1.44645
1.19324
0.933311
0.669116
0.402362
0.13426
3.68911
3.08637
2.79062
2.59722
2.42903
2.25504
2.06472
1.85671
1.63328
1.3977
1.15314
0.902244
0.647078
0.389222
0.129896
3.88195
3.24311
2.8729
2.62058
2.41369
2.21756
2.01696
1.80649
1.58547
1.35515
1.11741
0.874111
0.626886
0.37709
0.125852
3.65584
3.21319
2.87323
2.61231
2.39081
2.18313
1.97598
1.76355
1.54407
1.31772
1.08551
0.848678
0.608458
0.365948
0.122125
3.50676
3.11184
2.81858
2.57658
2.35825
2.14828
1.93862
1.72546
1.5074
1.28432
1.05677
0.825574
0.591601
0.355707
0.118692
3.1945
2.93982
2.72825
2.52436
2.31982
2.11315
1.90365