/*--------------------------------*- C++ -*----------------------------------*\
| =========                 |                                                 |
| \\      /  F ield         | OpenFOAM: The Open Source CFD Toolbox           |
|  \\    /   O peration     | Version:  5.x                                   |
|   \\  /    A nd           | Web:      www.OpenFOAM.org                      |
|    \\/     M anipulation  |                                                 |
\*---------------------------------------------------------------------------*/
FoamFile
{
    version     2.0;
    format      ascii;
    class       volScalarField;
    location    "2.1";
    object      gradTx;
}
// * * * * * * * * * * * * * * * * * * * * * * * * * * * * * * * * * * * * * //

dimensions      [0 -1 0 1 0 0 0];

internalField   nonuniform List<scalar> 
6300
(
-49.5909
-49.5572
-49.4896
-49.388
-49.2521
-49.0816
-48.8763
-48.6362
-48.3617
-48.0533
-47.7121
-47.3397
-46.938
-46.5093
-46.0558
-49.6242
-49.5906
-49.5233
-49.422
-49.2863
-49.116
-48.9108
-48.6704
-48.3952
-48.0857
-47.743
-47.3687
-46.9648
-46.5339
-46.0784
-49.6909
-49.6575
-49.5907
-49.49
-49.3549
-49.1851
-48.9799
-48.7392
-48.4628
-48.1512
-47.8053
-47.4269
-47.0184
-46.5828
-46.1232
-49.7905
-49.7576
-49.6915
-49.5919
-49.458
-49.2891
-49.0844
-48.8433
-48.5653
-48.2505
-47.8998
-47.515
-47.0989
-46.6553
-46.1886
-49.9227
-49.8904
-49.8257
-49.7277
-49.5958
-49.4286
-49.2251
-48.9839
-48.7042
-48.3854
-48.0282
-47.6341
-47.2067
-46.7508
-46.2728
-50.0867
-50.0555
-49.9926
-49.8973
-49.7683
-49.6041
-49.403
-49.1628
-48.8818
-48.5586
-48.193
-47.7864
-47.3426
-46.8682
-46.3724
-50.2816
-50.2518
-50.1916
-50.1001
-49.9757
-49.8164
-49.6195
-49.3822
-49.1012
-48.774
-48.3986
-47.9755
-47.5088
-47.0069
-46.4832
-50.506
-50.4781
-50.4216
-50.3355
-50.2177
-50.0657
-49.8761
-49.6448
-49.3668
-49.0371
-48.6515
-48.2081
-47.7098
-47.1671
-46.5993
-50.7579
-50.7325
-50.681
-50.602
-50.4935
-50.3523
-50.1742
-49.9537
-49.6836
-49.3559
-48.962
-48.4953
-47.9551
-47.3521
-46.7137
-51.0349
-51.0126
-50.9674
-50.8978
-50.8016
-50.6755
-50.5145
-50.3117
-50.0578
-49.7405
-49.3449
-48.8558
-48.2629
-47.5722
-46.8196
-51.3338
-51.3153
-51.2777
-51.2197
-51.1393
-51.0331
-50.8961
-50.7206
-50.4951
-50.203
-49.8211
-49.3197
-48.6684
-47.854
-46.9145
-51.6507
-51.6366
-51.6079
-51.5637
-51.5024
-51.4213
-51.3159
-51.179
-50.9986
-50.7551
-50.4164
-49.933
-49.2368
-48.2604
-47.0104
-51.9814
-51.972
-51.9532
-51.9244
-51.8849
-51.8332
-51.7668
-51.6805
-51.565
-51.4021
-51.1561
-50.7588
-50.085
-48.94
-47.1616
-52.3209
-52.3165
-52.3079
-52.2953
-52.2791
-52.2596
-52.2371
-52.211
-52.1786
-52.1316
-52.0468
-51.8606
-51.4038
-50.2527
-47.5756
-52.6644
-52.6648
-52.6662
-52.6695
-52.6762
-52.6887
-52.7107
-52.7473
-52.8063
-52.8986
-53.0384
-53.2325
-53.4165
-53.0908
-49.3128
-45.6208
-45.2089
-44.7823
-44.3411
-43.8849
-43.4128
-42.9239
-42.4175
-41.893
-41.3504
-40.79
-40.2132
-39.6217
-39.0178
-38.404
-37.7835
-37.1592
-36.5344
-35.9123
-35.2962
-34.6892
-34.0944
-33.5149
-32.9534
-32.4125
-31.8943
-31.4007
-30.9333
-30.4931
-30.081
-29.6974
-29.3426
-29.0164
-28.7184
-28.4484
-28.2055
-27.9892
-27.7988
-27.6336
-27.493
-27.3762
-27.2826
-27.2118
-27.1631
-27.1364
-27.1317
-27.1491
-27.189
-27.252
-27.3388
-27.4502
-27.5866
-27.7487
-27.9368
-28.1509
-28.3909
-28.6564
-28.9466
-29.2608
-29.5977
-29.9561
-30.3346
-30.7319
-31.1464
-31.5768
-32.0218
-32.4799
-32.9498
-33.4302
-33.9197
-34.417
-34.9209
-35.4303
-35.944
-36.4613
-36.981
-37.5024
-38.0245
-38.5465
-39.0675
-39.5868
-40.1036
-40.6172
-41.1268
-41.6316
-42.1306
-42.6223
-43.1053
-43.5776
-44.0372
-45.6422
-45.2297
-44.8032
-44.3627
-43.9075
-43.4368
-42.9491
-42.4435
-41.9192
-41.3758
-40.8138
-40.2345
-39.6397
-39.0319
-38.414
-37.789
-37.1602
-36.5307
-35.904
-35.2833
-34.6718
-34.0728
-33.4892
-32.9242
-32.3801
-31.8592
-31.3635
-30.8944
-30.4531
-30.0403
-29.6565
-29.3018
-28.9761
-28.6789
-28.4097
-28.1678
-27.9525
-27.7631
-27.5989
-27.4592
-27.3433
-27.2506
-27.1803
-27.132
-27.1054
-27.1004
-27.1172
-27.1563
-27.2183
-27.3041
-27.4145
-27.5502
-27.7119
-27.8998
-28.1141
-28.3547
-28.6211
-28.9126
-29.2284
-29.5671
-29.9275
-30.308
-30.7073
-31.1238
-31.5562
-32.0031
-32.4631
-32.9349
-33.4172
-33.9085
-34.4075
-34.9131
-35.4239
-35.9391
-36.4576
-36.9786
-37.5012
-38.0245
-38.5477
-39.0698
-39.5901
-40.1079
-40.6226
-41.1334
-41.6397
-42.1405
-42.6345
-43.1202
-43.5955
-44.0582
-45.6841
-45.2704
-44.8442
-44.4052
-43.9526
-43.4849
-43.0002
-42.4966
-41.9727
-41.4279
-40.8626
-40.2781
-39.6765
-39.0608
-38.4342
-37.8002
-37.1621
-36.5234
-35.8873
-35.2573
-34.6367
-34.029
-33.4374
-32.865
-32.3145
-31.7883
-31.2883
-30.816
-30.3724
-29.9583
-29.5742
-29.2199
-28.8952
-28.5996
-28.3322
-28.0922
-27.8789
-27.6916
-27.5294
-27.3917
-27.2777
-27.1867
-27.1178
-27.0703
-27.0439
-27.0383
-27.0539
-27.0911
-27.151
-27.2345
-27.3429
-27.477
-27.6376
-27.8252
-28.04
-28.2817
-28.5501
-28.8443
-29.1633
-29.5057
-29.8701
-30.2548
-30.6582
-31.0787
-31.5149
-31.9656
-32.4295
-32.9051
-33.3912
-33.8863
-34.3889
-34.8976
-35.4114
-35.9292
-36.4502
-36.9737
-37.4988
-38.0246
-38.5501
-39.0745
-39.5968
-40.1165
-40.6331
-41.1461
-41.6552
-42.1597
-42.6583
-43.1494
-43.631
-44.1004
-45.7447
-45.329
-44.9033
-44.4672
-44.0194
-43.5575
-43.0783
-42.5787
-42.0563
-41.5097
-40.9391
-40.3462
-39.7337
-39.1054
-38.4653
-37.8174
-37.1652
-36.5123
-35.8621
-35.218
-34.5835
-33.9623
-33.3582
-32.7746
-32.2144
-31.6801
-31.1737
-30.6965
-30.2496
-29.8338
-29.4492
-29.0959
-28.7731
-28.48
-28.2156
-27.9789
-27.7687
-27.5844
-27.4252
-27.2906
-27.1796
-27.0914
-27.0249
-26.979
-26.953
-26.9465
-26.9598
-26.9939
-27.05
-27.1298
-27.2347
-27.3662
-27.5251
-27.7121
-27.9274
-28.171
-28.4423
-28.7407
-29.0648
-29.4132
-29.7839
-30.175
-30.5847
-31.0112
-31.4531
-31.9095
-32.379
-32.8605
-33.3525
-33.8534
-34.3613
-34.875
-35.393
-35.9147
-36.4393
-36.9664
-37.4952
-38.0248
-38.5541
-39.0818
-39.607
-40.1292
-40.6482
-41.1642
-41.6771
-42.1868
-42.6923
-43.192
-43.6833
-44.1633
-45.821
-45.402
-44.977
-44.5459
-44.1065
-43.6548
-43.1856
-42.6936
-42.1746
-41.626
-41.0479
-40.4424
-39.8138
-39.1672
-38.5079
-37.8407
-37.1695
-36.4977
-35.8284
-35.165
-34.5112
-33.8714
-33.2499
-32.6507
-32.0773
-31.5322
-31.0173
-30.5338
-30.0827
-29.6646
-29.2799
-28.9282
-28.6086
-28.3197
-28.0599
-27.8277
-27.6218
-27.4415
-27.2864
-27.1559
-27.0494
-26.9656
-26.903
-26.8597
-26.8344
-26.8266
-26.8365
-26.8655
-26.9157
-26.9894
-27.089
-27.2163
-27.3727
-27.5587
-27.7748
-28.0207
-28.2961
-28.6003
-28.9319
-29.2889
-29.6687
-30.069
-30.4872
-30.9216
-31.371
-31.8346
-32.3116
-32.801
-33.3013
-33.8102
-34.3258
-34.8459
-35.3695
-35.8958
-36.4248
-36.9565
-37.4904
-38.0254
-38.56
-39.0925
-39.6214
-40.1462
-40.6675
-41.1861
-41.7033
-42.2195
-42.7344
-43.246
-43.7515
-44.2469
-45.908
-45.4832
-45.0593
-44.6364
-44.2112
-43.7772
-43.3256
-42.8475
-42.3354
-41.785
-41.196
-40.5721
-39.9199
-39.2474
-38.562
-37.8699
-37.1748
-36.4796
-35.7865
-35.0983
-34.4191
-33.7544
-33.1097
-32.4901
-31.8998
-31.3413
-30.816
-30.3248
-29.8686
-29.448
-29.0635
-28.7148
-28.4004
-28.1181
-27.8651
-27.6391
-27.4386
-27.263
-27.1125
-26.9874
-26.8871
-26.81
-26.7537
-26.715
-26.6915
-26.6818
-26.6863
-26.7072
-26.7479
-26.8122
-26.9038
-27.0253
-27.1781
-27.3628
-27.5795
-27.8283
-28.109
-28.421
-28.7629
-29.1319
-29.5246
-29.9373
-30.3667
-30.8107
-31.2686
-31.7405
-32.2265
-32.7261
-33.2375
-33.7578
-34.2836
-34.8121
-35.342
-35.8731
-36.4065
-36.9433
-37.4838
-38.0265
-38.5689
-39.1079
-39.6412
-40.1682
-40.6901
-41.2098
-41.7303
-42.2539
-42.7806
-43.3085
-43.8336
-44.3506
-45.998
-45.5631
-45.1401
-44.7302
-44.3286
-43.9247
-43.5038
-43.0504
-42.5514
-41.9995
-41.3943
-40.7426
-40.0555
-39.3461
-38.6261
-37.9032
-37.1807
-36.4589
-35.7376
-35.0187
-34.3067
-33.6089
-32.9334
-32.2878
-31.6769
-31.1028
-30.566
-30.066
-29.6035
-29.1798
-28.7961
-28.4524
-28.1466
-27.8747
-27.6319
-27.4144
-27.2199
-27.0488
-26.9027
-26.7836
-26.6918
-26.6252
-26.5795
-26.5491
-26.5291
-26.517
-26.5131
-26.5211
-26.5466
-26.5964
-26.6762
-26.7896
-26.938
-27.1212
-27.3386
-27.5904
-27.8772
-28.1992
-28.5551
-28.9412
-29.3522
-29.7819
-30.2255
-30.6802
-31.1464
-31.6262
-32.122
-32.6345
-33.1612
-33.6975
-34.2375
-34.7765
-35.3126
-35.8469
-36.3831
-36.9248
-37.4738
-38.0279
-38.5825
-39.1314
-39.67
-40.1971
-40.7156
-41.2318
-41.7526
-42.2831
-42.8247
-43.3745
-43.9268
-44.474
-46.0791
-45.6256
-45.2019
-44.8119
-44.4492
-44.0966
-43.7289
-43.3187
-42.8436
-42.2906
-41.6599
-40.9639
-40.2231
-39.4603
-38.6946
-37.9362
-37.1856
-36.4374
-35.6857
-34.9293
-34.1741
-33.4314
-32.7147
-32.0358
-31.4011
-30.8113
-30.2631
-29.7537
-29.2831
-28.8543
-28.4715
-28.1359
-27.8444
-27.5897
-27.363
-27.1569
-26.9683
-26.7991
-26.6547
-26.541
-26.4608
-26.411
-26.3837
-26.3686
-26.3562
-26.341
-26.3235
-26.31
-26.311
-26.338
-26.4007
-26.504
-26.6483
-26.8307
-27.0488
-27.3027
-27.5951
-27.929
-28.304
-28.7152
-29.1531
-29.607
-30.0684
-30.5335
-31.0048
-31.4891
-31.9938
-32.5223
-33.0713
-33.6319
-34.1929
-34.7452
-35.2857
-35.8181
-36.3516
-36.8959
-37.456
-38.0287
-38.604
-39.1694
-39.7151
-40.238
-40.7442
-41.2467
-41.7605
-42.2962
-42.8564
-43.4365
-44.027
-44.6164
-46.1336
-45.6451
-45.215
-44.854
-44.5554
-44.2904
-44.0149
-43.6807
-43.2478
-42.6936
-42.0196
-41.2497
-40.4223
-39.579
-38.7526
-37.9579
-37.1874
-36.4213
-35.6406
-34.8385
-34.0237
-33.2166
-32.4419
-31.7203
-31.0611
-30.46
-29.9049
-29.386
-28.9027
-28.4632
-28.0791
-27.7564
-27.4898
-27.2651
-27.0647
-26.8747
-26.6894
-26.5141
-26.3629
-26.2509
-26.1864
-26.1649
-26.171
-26.1848
-26.1877
-26.1689
-26.1287
-26.0788
-26.0384
-26.0289
-26.067
-26.1601
-26.3041
-26.4892
-26.7078
-26.9599
-27.2539
-27.5998
-28.0014
-28.451
-28.9312
-29.4218
-29.9062
-30.3782
-30.8447
-31.3228
-31.8315
-32.3807
-32.9649
-33.5658
-34.1607
-34.7311
-35.2704
-35.7877
-36.3045
-36.8443
-37.4199
-38.0254
-38.6395
-39.2357
-39.7926
-40.3027
-40.7778
-41.2452
-41.7364
-42.2733
-42.8593
-43.4831
-44.1281
-44.7773
-46.1352
-45.5802
-45.1284
-44.8063
-44.6131
-44.4993
-44.3852
-44.1849
-43.8266
-43.2694
-42.5174
-41.6185
-40.6446
-39.6731
-38.7654
-37.9447
-37.1831
-36.4263
-35.6266
-34.7663
-33.8627
-32.9555
-32.0929
-31.3151
-30.638
-30.0427
-29.4948
-28.9677
-28.4594
-27.9928
-27.5989
-27.2966
-27.0754
-26.9057
-26.7521
-26.5863
-26.3965
-26.1952
-26.015
-25.8931
-25.8509
-25.8794
-25.9479
-26.0171
-26.0512
-26.0282
-25.9483
-25.8343
-25.7221
-25.6515
-25.6546
-25.7433
-25.9013
-26.1002
-26.3188
-26.5574
-26.8383
-27.1907
-27.6302
-28.143
-28.695
-29.2456
-29.7622
-30.2313
-30.6681
-31.1128
-31.6109
-32.189
-32.8345
-33.5086
-34.1639
-34.7618
-35.2868
-35.758
-36.2242
-36.741
-37.3408
-38.0094
-38.7007
-39.3585
-39.937
-40.4175
-40.822
-41.2089
-41.6463
-42.1796
-42.8069
-43.4989
-44.2229
-44.9559
-46.0455
-45.3667
-44.8545
-44.5726
-44.5561
-44.7085
-44.8797
-44.9166
-44.692
-44.1254
-43.227
-42.0951
-40.8635
-39.6757
-38.6528
-37.8469
-37.1719
-36.4934
-35.6999
-34.7567
-33.7069
-32.6304
-31.6221
-30.7654
-30.0974
-29.5577
-29.0552
-28.5226
-27.9567
-27.418
-26.9875
-26.7202
-26.5876
-26.5237
-26.4577
-26.3329
-26.121
-25.8464
-25.584
-25.421
-25.4141
-25.5371
-25.7245
-25.9004
-25.9976
-25.97
-25.8179
-25.5878
-25.3465
-25.1688
-25.1198
-25.2271
-25.4401
-25.6836
-25.9014
-26.0946
-26.3204
-26.6566
-27.1539
-27.7793
-28.4609
-29.1188
-29.6869
-30.1311
-30.4805
-30.8259
-31.2757
-31.9002
-32.6631
-33.4785
-34.2497
-34.8976
-35.3809
-35.7353
-36.0708
-36.5182
-37.1624
-37.9605
-38.8097
-39.5953
-40.2224
-40.6412
-40.8913
-41.0994
-41.4177
-41.9498
-42.6611
-43.4682
-44.304
-45.1488
-45.804
-44.9129
-44.249
-43.9565
-44.2558
-44.8903
-45.5671
-46.0248
-46.0497
-45.4593
-44.2727
-42.7156
-41.0192
-39.4411
-38.2277
-37.5606
-37.1659
-36.7263
-35.9892
-34.9009
-33.59
-32.2076
-30.9334
-29.9441
-29.3727
-29.0195
-28.6593
-28.1258
-27.4154
-26.6877
-26.1417
-25.9506
-26.0013
-26.1454
-26.2487
-26.2054
-25.9363
-25.4808
-25.0107
-24.7247
-24.7908
-25.1031
-25.5182
-25.898
-26.1246
-26.0919
-25.8006
-25.358
-24.8802
-24.5016
-24.3604
-24.5595
-24.9359
-25.3043
-25.5204
-25.5851
-25.6443
-25.8909
-26.4936
-27.3352
-28.2617
-29.1215
-29.7906
-30.1679
-30.299
-30.3892
-30.6891
-31.4125
-32.4165
-33.512
-34.5135
-35.2702
-35.6606
-35.7398
-35.7564
-36.0117
-36.7625
-37.8377
-39.0103
-40.06
-40.8074
-41.1077
-41.0206
-40.8308
-40.8806
-41.4616
-42.3766
-43.3954
-44.3717
-45.3343
-45.2784
-44.1317
-43.1086
-42.4882
-43.4732
-45.0111
-46.5702
-47.756
-48.2936
-47.6517
-45.8519
-43.5366
-41.0047
-38.6814
-37.0161
-36.8823
-37.2249
-37.3878
-36.7845
-35.3657
-33.5764
-31.6292
-29.8345
-28.5217
-28.3338
-28.4919
-28.5134
-27.984
-26.8996
-25.6962
-24.7853
-24.8332
-25.2812
-25.8263
-26.2512
-26.4038
-26.0207
-25.1369
-24.1727
-23.5218
-23.8137
-24.5217
-25.3634
-26.1167
-26.6254
-26.5869
-26.002
-25.1792
-24.2718
-23.4928
-23.1115
-23.6372
-24.4437
-25.1448
-25.3577
-25.0842
-24.6986
-24.6129
-25.4897
-26.7691
-28.1591
-29.3994
-30.3146
-30.5595
-30.1765
-29.6508
-29.493
-30.5206
-32.0383
-33.6809
-35.1298
-36.1705
-36.3885
-35.8344
-35.0982
-34.7915
-35.8954
-37.5743
-39.3875
-40.9597
-42.0359
-42.1314
-41.2978
-40.2165
-39.5783
-40.4922
-41.9423
-43.3831
-44.4586
-45.3916
-43.954
-43.1725
-41.3883
-38.7076
-41.8938
-45.1014
-48.1104
-50.4206
-52.2361
-51.5115
-48.1733
-44.6698
-40.6898
-36.9745
-33.5991
-35.5181
-37.543
-39.1529
-38.7544
-36.3644
-33.7907
-30.8313
-28.0422
-25.4797
-26.7969
-28.1617
-29.1613
-28.6419
-26.5557
-24.2838
-22.0488
-23.14
-24.4221
-25.6808
-26.6465
-27.3743
-26.8266
-24.9092
-22.8845
-20.9618
-22.2382
-23.7486
-25.3364
-26.6886
-27.9152
-27.8694
-26.5466
-25.1233
-23.4789
-21.9123
-20.5571
-22.3111
-24.104
-25.689
-25.8962
-24.7454
-23.3217
-21.9495
-23.9065
-26.0442
-28.2725
-30.146
-31.8042
-31.8559
-30.2599
-28.383
-26.5902
-28.9235
-31.4803
-34.1289
-36.3342
-38.2555
-38.2282
-36.1913
-33.8215
-31.54
-34.2001
-37.1176
-40.1113
-42.5732
-44.6765
-44.4928
-41.9309
-38.964
-36.0405
-38.7499
-41.5206
-43.8965
-44.7495
-44.6857
-38.9547
-43.6566
-40.9587
-26.4789
-40.2832
-45.4778
-50.657
-53.7973
-59.8365
-59.1347
-50.7331
-46.489
-39.9936
-34.7784
-22.5582
-34.0015
-38.4588
-43.8102
-43.5923
-37.6277
-34.5607
-29.7886
-25.9237
-16.8513
-25.1918
-28.3577
-31.9969
-31.5565
-26.4799
-22.8186
-14.5231
-21.1725
-23.5971
-25.9579
-27.3852
-30.182
-29.6058
-24.8368
-21.4501
-13.7958
-20.3263
-22.8646
-25.6496
-27.4423
-31.0381
-30.9914
-27.2368
-25.3866
-22.5749
-20.0277
-13.5263
-20.9294
-24.0644
-28.2179
-28.3908
-24.7999
-21.8713
-14.4924
-22.0637
-25.1895
-28.8974
-31.2029
-35.6078
-35.5254
-30.7481
-26.9942
-17.7463
-27.0045
-30.7904
-35.2156
-37.9476
-43.1464
-42.9618
-37.0277
-32.4175
-21.1724
-32.1338
-36.5511
-41.6007
-44.7027
-50.6098
-50.2786
-43.1466
-37.6486
-24.3908
-36.919
-41.667
-46.6022
-46.3604
-39.8452
-44.5244
-45.0325
-45.5116
-45.9585
-46.3705
-46.7455
-47.0823
-47.3802
-47.6392
-47.8596
-48.0419
-48.1866
-48.2945
-48.3661
-48.4018
-44.549
-45.0609
-45.5433
-45.9929
-46.4068
-46.783
-47.1204
-47.4185
-47.6772
-47.8971
-48.0787
-48.2228
-48.3302
-48.4014
-48.4369
-44.5986
-45.1181
-45.6073
-46.0623
-46.4801
-46.8588
-47.1973
-47.4954
-47.7534
-47.9721
-48.1523
-48.2951
-48.4013
-48.4716
-48.5067
-44.6734
-45.2051
-45.7049
-46.1683
-46.592
-46.9741
-47.314
-47.6118
-47.8683
-48.0849
-48.2628
-48.4033
-48.5076
-48.5766
-48.6109
-44.7741
-45.3236
-45.8384
-46.3133
-46.7447
-47.131
-47.472
-47.7687
-48.0226
-48.2357
-48.4099
-48.547
-48.6484
-48.7154
-48.7487
-44.902
-45.476
-46.0113
-46.5013
-46.9421
-47.3326
-47.6737
-47.9676
-48.217
-48.4247
-48.5935
-48.7256
-48.8231
-48.8873
-48.9192
-45.059
-45.6666
-46.2289
-46.7377
-47.1891
-47.583
-47.9221
-48.2104
-48.4523
-48.6519
-48.8129
-48.9383
-49.0303
-49.0908
-49.1207
-45.2483
-45.9018
-46.4996
-47.0311
-47.493
-47.8876
-48.2207
-48.499
-48.7293
-48.9171
-49.0673
-49.1835
-49.2684
-49.3241
-49.3516
-45.4752
-46.1922
-46.8362
-47.3935
-47.8635
-48.2533
-48.5735
-48.8352
-49.048
-49.2193
-49.355
-49.4593
-49.5351
-49.5847
-49.6092
-45.7484
-46.5552
-47.2587
-47.8427
-48.3135
-48.6878
-48.9844
-49.22
-49.4075
-49.5565
-49.6734
-49.7627
-49.8274
-49.8696
-49.8905
-46.0815
-47.0207
-47.8
-48.4043
-48.8589
-49.1991
-49.4557
-49.6523
-49.8052
-49.9251
-50.0186
-50.0899
-50.1415
-50.1752
-50.1918
-46.4936
-47.6453
-48.5155
-49.1151
-49.5179
-49.7925
-49.9859
-50.1277
-50.2356
-50.3196
-50.3854
-50.4359
-50.4728
-50.497
-50.509
-47.0152
-48.5509
-49.5009
-50.0227
-50.3051
-50.4662
-50.5666
-50.6362
-50.6892
-50.7319
-50.7668
-50.7948
-50.816
-50.8302
-50.8374
-47.7554
-50.0417
-50.9131
-51.1689
-51.2132
-51.1994
-51.1771
-51.1607
-51.1526
-51.1514
-51.1546
-51.1598
-51.1653
-51.1697
-51.1721
-49.577
-52.9464
-52.9401
-52.5258
-52.1793
-51.9397
-51.7805
-51.6761
-51.6086
-51.5659
-51.5396
-51.5239
-51.515
-51.5103
-51.5083
-52.9783
-52.9828
-52.9925
-53.0088
-53.0344
-53.073
-53.131
-53.2181
-53.3507
-53.5578
-53.8969
-54.4988
-55.7282
-58.8569
-69.3329
-53.2602
-53.2679
-53.2841
-53.3107
-53.3506
-53.4087
-53.4926
-53.6142
-53.7934
-54.065
-54.4943
-55.2141
-56.5108
-58.996
-63.5784
-53.5364
-53.5467
-53.5682
-53.6029
-53.6539
-53.7263
-53.8278
-53.9701
-54.1717
-54.4622
-54.8896
-55.5283
-56.468
-57.6782
-58.3308
-53.8051
-53.8174
-53.8428
-53.8833
-53.942
-54.0234
-54.1343
-54.2846
-54.4879
-54.7638
-55.1376
-55.6334
-56.2369
-56.7473
-56.2212
-54.0648
-54.0785
-54.1066
-54.1509
-54.214
-54.2997
-54.4134
-54.5618
-54.7533
-54.997
-55.3004
-55.6634
-56.07
-56.5359
-57.5628
-54.3146
-54.3292
-54.3588
-54.405
-54.4699
-54.5564
-54.668
-54.8087
-54.9818
-55.1881
-55.4218
-55.6626
-55.8617
-55.9345
-55.8113
-54.554
-54.5689
-54.5991
-54.6459
-54.7106
-54.7953
-54.9022
-55.0327
-55.1867
-55.3596
-55.538
-55.6906
-55.7403
-55.4692
-53.9793
-54.7825
-54.7974
-54.8276
-54.8738
-54.9371
-55.0187
-55.1197
-55.2401
-55.3779
-55.5265
-55.6721
-55.7897
-55.8412
-55.8499
-56.5468
-55.0003
-55.015
-55.0445
-55.0895
-55.1506
-55.2284
-55.3235
-55.4351
-55.5608
-55.6947
-55.8257
-55.9342
-55.9713
-55.7525
-54.175
-55.2075
-55.2217
-55.2503
-55.2936
-55.3521
-55.426
-55.5155
-55.62
-55.7373
-55.864
-55.9949
-56.1279
-56.2784
-56.5984
-58.1878
-55.4042
-55.4179
-55.4454
-55.4868
-55.5425
-55.6125
-55.697
-55.7954
-55.9067
-56.0294
-56.1627
-56.3092
-56.4672
-56.5625
-55.8359
-55.591
-55.6041
-55.6303
-55.6698
-55.7226
-55.7888
-55.8686
-55.9616
-56.0676
-56.1865
-56.3211
-56.4821
-56.699
-57.097
-58.4383
-55.7683
-55.7807
-55.8056
-55.843
-55.893
-55.9555
-56.0307
-56.1184
-56.2186
-56.3318
-56.4612
-56.6159
-56.8041
-56.9763
-56.5253
-55.9363
-55.9481
-55.9717
-56.0071
-56.0543
-56.1132
-56.1839
-56.2661
-56.3598
-56.4649
-56.5838
-56.726
-56.9196
-57.288
-58.4887
-56.0957
-56.1068
-56.1291
-56.1626
-56.207
-56.2625
-56.3288
-56.4056
-56.4922
-56.5875
-56.6902
-56.8
-56.913
-57.0214
-57.1091
-56.2467
-56.2573
-56.2784
-56.3099
-56.3518
-56.404
-56.4662
-56.5379
-56.6179
-56.7039
-56.7915
-56.8714
-56.9088
-56.769
-55.797
-56.3899
-56.3999
-56.4198
-56.4496
-56.4891
-56.5382
-56.5967
-56.6639
-56.7386
-56.8181
-56.8982
-56.9719
-57.0269
-57.094
-57.689
-56.5256
-56.535
-56.5539
-56.582
-56.6194
-56.6657
-56.7209
-56.7844
-56.8551
-56.931
-57.0092
-57.0849
-57.1358
-57.0523
-56.1285
-56.6542
-56.6631
-56.681
-56.7076
-56.743
-56.7869
-56.8391
-56.8994
-56.9671
-57.0412
-57.1221
-57.2148
-57.3372
-57.5938
-58.6753
-56.776
-56.7845
-56.8014
-56.8267
-56.8603
-56.9019
-56.9515
-57.0089
-57.0737
-57.1456
-57.2266
-57.3237
-57.4447
-57.562
-57.2384
-56.8913
-56.8994
-56.9155
-56.9396
-56.9715
-57.0111
-57.0583
-57.1128
-57.1744
-57.2427
-57.32
-57.4154
-57.5539
-57.836
-58.7652
-57.0004
-57.0081
-57.0235
-57.0465
-57.077
-57.1148
-57.1597
-57.2115
-57.2694
-57.3325
-57.4008
-57.4768
-57.5625
-57.6604
-57.7632
-57.1035
-57.1109
-57.1257
-57.1478
-57.177
-57.2132
-57.2562
-57.3054
-57.3599
-57.4177
-57.4761
-57.531
-57.5618
-57.481
-56.84
-57.2008
-57.208
-57.2223
-57.2436
-57.2717
-57.3066
-57.348
-57.3953
-57.4471
-57.5011
-57.5539
-57.6016
-57.6375
-57.6904
-58.1281
-57.2926
-57.2995
-57.3134
-57.334
-57.3614
-57.3953
-57.4355
-57.4815
-57.5319
-57.5844
-57.6353
-57.6798
-57.7007
-57.6323
-57.0786
-57.3789
-57.3857
-57.3992
-57.4193
-57.4461
-57.4792
-57.5187
-57.5641
-57.6143
-57.6674
-57.7211
-57.774
-57.8248
-57.9109
-58.4088
-57.4599
-57.4665
-57.4798
-57.4995
-57.5258
-57.5585
-57.5976
-57.6429
-57.6938
-57.7489
-57.8074
-57.8692
-57.9236
-57.9033
-57.336
-57.5356
-57.5421
-57.5552
-57.5747
-57.6006
-57.633
-57.672
-57.7175
-57.7692
-57.8269
-57.8915
-57.969
-58.0733
-58.2752
-59.0293
-57.6062
-57.6126
-57.6255
-57.6448
-57.6705
-57.7027
-57.7416
-57.7872
-57.8395
-57.8987
-57.9667
-58.0498
-58.1542
-58.2632
-58.102
-57.6716
-57.678
-57.6908
-57.7099
-57.7355
-57.7675
-57.8062
-57.8517
-57.904
-57.9633
-58.0312
-58.1153
-58.2309
-58.4384
-59.0409
-57.7319
-57.7383
-57.751
-57.77
-57.7954
-57.8273
-57.8658
-57.911
-57.9627
-58.0205
-58.0847
-58.1584
-58.2429
-58.3388
-58.4364
-57.7872
-57.7935
-57.8061
-57.8251
-57.8504
-57.8822
-57.9205
-57.9653
-58.0162
-58.072
-58.1314
-58.1935
-58.2461
-58.2376
-57.9079
-57.8373
-57.8437
-57.8563
-57.8752
-57.9005
-57.9322
-57.9704
-58.015
-58.0652
-58.1196
-58.1764
-58.2348
-58.2907
-58.3591
-58.641
-57.8824
-57.8888
-57.9014
-57.9204
-57.9457
-57.9774
-58.0156
-58.0602
-58.1102
-58.1643
-58.2204
-58.2772
-58.3255
-58.332
-58.0958
-57.9225
-57.9288
-57.9415
-57.9605
-57.9859
-58.0178
-58.0562
-58.101
-58.1515
-58.2062
-58.2639
-58.3249
-58.3884
-58.4732
-58.7636
-57.9574
-57.9638
-57.9765
-57.9957
-58.0212
-58.0533
-58.092
-58.1373
-58.1886
-58.2448
-58.3051
-58.3704
-58.4356
-58.4713
-58.2728
-57.9872
-57.9936
-58.0065
-58.0257
-58.0515
-58.0839
-58.123
-58.169
-58.2213
-58.2793
-58.3429
-58.4155
-58.5021
-58.6317
-58.9937
-58.0118
-58.0183
-58.0313
-58.0507
-58.0767
-58.1095
-58.1491
-58.1957
-58.249
-58.3085
-58.3744
-58.4503
-58.5377
-58.6304
-58.6335
-58.0313
-58.0378
-58.0509
-58.0705
-58.0968
-58.1299
-58.17
-58.2172
-58.2713
-58.3318
-58.399
-58.4767
-58.5686
-58.691
-58.9312
-58.0454
-58.052
-58.0653
-58.0851
-58.1117
-58.1451
-58.1857
-58.2334
-58.2881
-58.3491
-58.4164
-58.4926
-58.5774
-58.6692
-58.7574
-58.0543
-58.061
-58.0743
-58.0944
-58.1213
-58.1551
-58.1961
-58.2442
-58.2993
-58.3606
-58.4276
-58.5019
-58.5803
-58.6497
-58.6537
-58.0578
-58.0646
-58.0781
-58.0984
-58.1256
-58.1598
-58.2011
-58.2498
-58.3053
-58.3667
-58.4337
-58.5079
-58.5883
-58.6752
-58.7905
-58.0559
-58.0628
-58.0764
-58.097
-58.1245
-58.1591
-58.2009
-58.25
-58.3059
-58.3676
-58.4347
-58.5092
-58.5908
-58.6805
-58.7874
-58.0485
-58.0555
-58.0693
-58.0902
-58.118
-58.153
-58.1954
-58.245
-58.3014
-58.3635
-58.4307
-58.5051
-58.5864
-58.6736
-58.7442
-58.0356
-58.0426
-58.0567
-58.0778
-58.1061
-58.1416
-58.1845
-58.2347
-58.2917
-58.3543
-58.4217
-58.4956
-58.577
-58.6777
-58.8822
-58.017
-58.0242
-58.0384
-58.0599
-58.0886
-58.1246
-58.1682
-58.2192
-58.277
-58.3404
-58.4081
-58.4805
-58.553
-58.6094
-58.5514
-57.9928
-58
-58.0145
-58.0363
-58.0654
-58.1021
-58.1464
-58.1984
-58.2574
-58.3221
-58.3912
-58.4647
-58.5392
-58.6201
-58.8092
-57.9628
-57.9701
-57.9848
-58.007
-58.0366
-58.0739
-58.119
-58.1721
-58.2327
-58.2994
-58.3712
-58.4477
-58.5199
-58.5553
-58.4034
-57.9269
-57.9343
-57.9493
-57.9718
-58.0019
-58.0398
-58.0859
-58.1402
-58.2024
-58.2718
-58.3481
-58.4331
-58.5252
-58.6201
-58.7052
-57.8851
-57.8926
-57.9078
-57.9306
-57.9612
-57.9998
-58.0467
-58.1021
-58.166
-58.238
-58.3188
-58.413
-58.5273
-58.6914
-59.0754
-57.8372
-57.8449
-57.8603
-57.8835
-57.9145
-57.9537
-58.0013
-58.0577
-58.1229
-58.1967
-58.2803
-58.3786
-58.4936
-58.6096
-58.5473
-57.7833
-57.7911
-57.8067
-57.8301
-57.8616
-57.9013
-57.9495
-58.0066
-58.0725
-58.147
-58.2315
-58.3319
-58.4582
-58.6512
-59.1592
-57.7232
-57.7311
-57.7469
-57.7706
-57.8025
-57.8426
-57.8914
-57.9489
-58.0149
-58.089
-58.1717
-58.2669
-58.3753
-58.4737
-58.303
-57.6569
-57.6649
-57.6808
-57.7049
-57.737
-57.7776
-57.8268
-57.8846
-57.9506
-58.0237
-58.1031
-58.192
-58.2984
-58.4827
-59.1677
-57.5843
-57.5924
-57.6085
-57.6327
-57.6653
-57.7063
-57.7559
-57.8142
-57.8803
-57.9524
-58.028
-58.1045
-58.1661
-58.1438
-57.6025
-57.5054
-57.5135
-57.5297
-57.5542
-57.5871
-57.6285
-57.6787
-57.7377
-57.8045
-57.8772
-57.9524
-58.0267
-58.0909
-58.1648
-58.5856
-57.42
-57.4282
-57.4446
-57.4693
-57.5024
-57.5443
-57.5952
-57.6552
-57.7236
-57.7987
-57.8776
-57.9552
-58.0079
-57.9446
-57.3286
-57.3282
-57.3364
-57.3529
-57.3777
-57.4112
-57.4535
-57.5051
-57.5662
-57.6368
-57.7161
-57.8035
-57.9007
-58.0043
-58.1077
-58.195
-57.2298
-57.2381
-57.2546
-57.2796
-57.3132
-57.3559
-57.408
-57.4702
-57.5428
-57.6263
-57.7228
-57.841
-57.9998
-58.2815
-59.1316
-57.125
-57.1333
-57.1498
-57.1748
-57.2085
-57.2512
-57.3036
-57.3664
-57.4401
-57.5259
-57.6271
-57.7526
-57.9087
-58.0601
-57.782
-57.0137
-57.0219
-57.0384
-57.0634
-57.0969
-57.1395
-57.1918
-57.2543
-57.3278
-57.4133
-57.5145
-57.6425
-57.8198
-58.1366
-59.1348
-56.8959
-56.9041
-56.9205
-56.9452
-56.9785
-57.0208
-57.0725
-57.1341
-57.206
-57.2884
-57.3833
-57.4975
-57.633
-57.7394
-57.2676
-56.7716
-56.7797
-56.7959
-56.8204
-56.8534
-56.8951
-56.946
-57.0063
-57.0756
-57.1532
-57.2387
-57.337
-57.4653
-57.7433
-59.0049
-56.6409
-56.6489
-56.665
-56.6891
-56.7217
-56.7628
-56.8127
-56.8716
-56.9384
-57.0109
-57.0854
-57.1553
-57.1923
-57.0637
-55.9263
-56.5039
-56.5118
-56.5276
-56.5514
-56.5834
-56.6238
-56.673
-56.7307
-56.796
-56.8658
-56.9351
-56.9959
-57.0332
-57.0843
-57.769
-56.3607
-56.3684
-56.3839
-56.4073
-56.4387
-56.4785
-56.527
-56.5841
-56.6491
-56.7196
-56.7907
-56.8524
-56.8634
-56.6646
-55.4814
-56.2112
-56.2188
-56.234
-56.2569
-56.2878
-56.3268
-56.3746
-56.4314
-56.4972
-56.5713
-56.653
-56.7434
-56.8381
-56.9279
-56.9971
-56.0558
-56.0632
-56.078
-56.1004
-56.1305
-56.1687
-56.2157
-56.272
-56.3384
-56.4162
-56.5093
-56.631
-56.8148
-57.2053
-58.5704
-55.8944
-55.9016
-55.9161
-55.9378
-55.9671
-56.0042
-56.0499
-56.1049
-56.1705
-56.2489
-56.3458
-56.4748
-56.647
-56.8054
-56.2475
-55.7272
-55.7342
-55.7483
-55.7694
-55.7977
-55.8335
-55.8773
-55.93
-55.9925
-56.0672
-56.1601
-56.288
-56.4875
-56.9027
-58.4005
-55.5544
-55.5612
-55.5749
-55.5953
-55.6225
-55.6568
-55.6983
-55.7476
-55.8049
-55.8713
-55.9501
-56.0509
-56.177
-56.2478
-55.4014
-55.3761
-55.3827
-55.396
-55.4157
-55.442
-55.4746
-55.5137
-55.559
-55.6098
-55.6651
-55.7249
-55.7956
-55.9037
-56.2294
-58.0259
-55.1924
-55.1989
-55.2118
-55.2311
-55.2564
-55.2877
-55.3244
-55.3659
-55.4104
-55.4544
-55.4922
-55.5138
-55.478
-55.1894
-53.3991
-55.0034
-55.0098
-55.0226
-55.0415
-55.0663
-55.0965
-55.1315
-55.1703
-55.2101
-55.2464
-55.2709
-55.2713
-55.2267
-55.1917
-56.047
-54.8091
-54.8156
-54.8284
-54.8472
-54.8718
-54.9016
-54.9358
-54.9732
-55.0112
-55.0449
-55.0664
-55.0594
-54.9676
-54.5752
-52.822
-54.6096
-54.6162
-54.6292
-54.6483
-54.6732
-54.7033
-54.7377
-54.7752
-54.8139
-54.8505
-54.8818
-54.9059
-54.9161
-54.9034
-54.8653
-54.4047
-54.4115
-54.425
-54.4448
-54.4705
-54.5016
-54.5371
-54.576
-54.6168
-54.6582
-54.7021
-54.7616
-54.8794
-55.2489
-56.8915
-54.1944
-54.2015
-54.2157
-54.2366
-54.2637
-54.2964
-54.3338
-54.3748
-54.418
-54.4627
-54.5115
-54.5762
-54.6667
-54.7098
-53.8233
-53.9783
-53.9859
-54.001
-54.0233
-54.0524
-54.0875
-54.1277
-54.1716
-54.2171
-54.2627
-54.3101
-54.3722
-54.4857
-54.816
-56.3933
-53.7562
-53.7644
-53.7806
-53.8048
-53.8364
-53.8748
-53.9188
-53.9666
-54.015
-54.06
-54.0985
-54.132
-54.153
-54.0557
-52.8469
-53.5276
-53.5364
-53.5541
-53.5804
-53.6152
-53.6578
-53.7071
-53.7607
-53.8141
-53.8602
-53.8906
-53.8999
-53.9014
-54.0668
-55.6915
-53.2922
-53.3017
-53.3208
-53.3495
-53.388
-53.4358
-53.4921
-53.5543
-53.6169
-53.67
-53.6972
-53.6727
-53.5348
-53.064
-50.9952
-53.0494
-53.0595
-53.0801
-53.1113
-53.1538
-53.2077
-53.2727
-53.347
-53.4253
-53.4963
-53.5398
-53.5237
-53.3982
-53.1706
-53.5497
-52.7988
-52.8095
-52.8312
-52.8648
-52.9111
-52.9714
-53.0467
-53.1365
-53.2375
-53.3401
-53.424
-53.45
-53.3314
-52.8555
-51.2185
-52.5401
-52.5511
-52.5735
-52.6087
-52.6582
-52.7245
-52.8102
-52.9177
-53.0475
-53.1954
-53.3484
-53.4763
-53.5116
-53.3463
-52.9176
-52.2731
-52.2839
-52.3064
-52.342
-52.3932
-52.4638
-52.5583
-52.6829
-52.8436
-53.0458
-53.2904
-53.5663
-53.8299
-54.0197
-54.3277
-51.9978
-52.008
-52.0294
-52.0638
-52.1144
-52.186
-52.2854
-52.4224
-52.6099
-52.8654
-53.2106
-53.6645
-54.1983
-54.6106
-54.2174
-51.7148
-51.7237
-51.7427
-51.7738
-51.8205
-51.8885
-51.9862
-52.1262
-52.3278
-52.6211
-53.0554
-53.7067
-54.6501
-55.7604
-55.5859
-51.4248
-51.4318
-51.447
-51.4723
-51.5114
-51.5702
-51.6573
-51.7868
-51.9808
-52.2776
-52.7496
-53.5455
-54.9849
-57.802
-63.5301
-51.1292
-51.1337
-51.1435
-51.1606
-51.1883
-51.2317
-51.2988
-51.402
-51.5612
-51.8111
-52.2191
-52.9368
-54.362
-57.8219
-68.7723
-69.7816
-58.7031
-55.1705
-53.7072
-52.967
-52.5434
-52.2821
-52.1139
-52.0034
-51.9303
-51.8821
-51.8507
-51.8308
-51.8192
-51.8139
-64.8845
-58.6956
-55.7601
-54.2789
-53.4631
-52.9783
-52.6724
-52.4714
-52.3361
-52.2441
-52.1815
-52.1393
-52.1117
-52.0951
-52.0873
-55.9764
-56.4282
-55.3385
-54.3882
-53.7292
-53.288
-52.9889
-52.7826
-52.6384
-52.5372
-52.4662
-52.4171
-52.3843
-52.3642
-52.3547
-55.08
-55.2306
-54.8189
-54.295
-53.8441
-53.4977
-53.24
-53.05
-52.9106
-52.8089
-52.7353
-52.6831
-52.6476
-52.6254
-52.6148
-54.0874
-54.423
-54.3762
-54.1508
-53.8863
-53.6447
-53.443
-53.2818
-53.1563
-53.0607
-52.9892
-52.9371
-52.9008
-52.8779
-52.8669
-53.5355
-53.8804
-54.0565
-54.0334
-53.9125
-53.7629
-53.6169
-53.4881
-53.381
-53.2954
-53.2291
-53.1794
-53.1442
-53.1216
-53.1106
-52.0874
-53.4542
-53.8742
-53.9835
-53.9587
-53.8774
-53.7776
-53.6788
-53.5906
-53.5165
-53.457
-53.4112
-53.3781
-53.3566
-53.346
-53.951
-53.6851
-53.9063
-54.0266
-54.0439
-54.0035
-53.9364
-53.8616
-53.79
-53.7271
-53.6748
-53.6336
-53.6032
-53.5833
-53.5734
-51.7558
-53.5769
-54.0075
-54.1409
-54.1691
-54.147
-54.0994
-54.0415
-53.9832
-53.93