/*--------------------------------*- C++ -*----------------------------------*\
| =========                 |                                                 |
| \\      /  F ield         | OpenFOAM: The Open Source CFD Toolbox           |
|  \\    /   O peration     | Version:  5.x                                   |
|   \\  /    A nd           | Web:      www.OpenFOAM.org                      |
|    \\/     M anipulation  |                                                 |
\*---------------------------------------------------------------------------*/
FoamFile
{
    version     2.0;
    format      ascii;
    class       volScalarField;
    location    "2.1";
    object      T;
}
// * * * * * * * * * * * * * * * * * * * * * * * * * * * * * * * * * * * * * //

dimensions      [0 0 0 1 0 0 0];

internalField   nonuniform List<scalar> 
6300
(
322.752
322.256
321.761
321.266
320.773
320.281
319.791
319.304
318.819
318.337
317.858
317.382
316.911
316.444
315.981
322.752
322.256
321.76
321.265
320.772
320.279
319.789
319.301
318.816
318.333
317.854
317.379
316.907
316.439
315.976
322.752
322.255
321.758
321.263
320.769
320.276
319.785
319.296
318.81
318.327
317.847
317.371
316.899
316.43
315.967
322.751
322.253
321.756
321.259
320.764
320.27
319.778
319.289
318.801
318.317
317.836
317.359
316.886
316.417
315.953
322.75
322.251
321.753
321.255
320.758
320.263
319.769
319.278
318.79
318.304
317.822
317.344
316.869
316.399
315.934
322.75
322.249
321.748
321.249
320.75
320.254
319.758
319.265
318.775
318.288
317.804
317.324
316.848
316.377
315.911
322.749
322.246
321.744
321.242
320.742
320.242
319.745
319.25
318.758
318.268
317.782
317.3
316.823
316.35
315.882
322.747
322.242
321.738
321.234
320.731
320.23
319.73
319.232
318.737
318.245
317.756
317.272
316.792
316.318
315.849
322.746
322.239
321.732
321.225
320.719
320.215
319.712
319.212
318.713
318.218
317.726
317.239
316.756
316.28
315.809
322.745
322.235
321.725
321.215
320.707
320.199
319.693
319.189
318.687
318.188
317.692
317.201
316.715
316.236
315.763
322.743
322.23
321.717
321.204
320.693
320.182
319.672
319.164
318.658
318.154
317.653
317.157
316.667
316.184
315.71
322.742
322.225
321.709
321.193
320.678
320.163
319.649
319.137
318.626
318.117
317.611
317.108
316.612
316.124
315.647
322.74
322.22
321.701
321.181
320.662
320.144
319.625
319.108
318.592
318.077
317.564
317.054
316.549
316.052
315.57
322.738
322.215
321.692
321.169
320.646
320.123
319.601
319.079
318.557
318.035
317.514
316.994
316.477
315.966
315.472
322.737
322.21
321.683
321.157
320.63
320.103
319.576
319.049
318.521
317.993
317.463
316.932
316.399
315.864
315.337
315.561
315.182
314.807
314.436
314.068
313.704
313.345
312.989
312.638
312.291
311.948
311.611
311.278
310.951
310.628
310.311
309.998
309.691
309.389
309.093
308.801
308.514
308.233
307.956
307.684
307.416
307.152
306.892
306.636
306.384
306.135
305.889
305.646
305.406
305.167
304.931
304.697
304.465
304.234
304.004
303.776
303.548
303.321
303.095
302.868
302.642
302.416
302.19
301.963
301.736
301.507
301.278
301.048
300.816
300.582
300.346
300.109
299.869
299.626
299.381
299.133
298.882
298.628
298.37
298.108
297.843
297.575
297.302
297.026
296.745
296.46
296.171
295.878
295.581
295.279
294.973
294.663
294.348
294.029
293.706
293.378
293.046
292.71
292.369
292.024
291.675
291.322
290.965
290.603
290.238
315.556
315.177
314.802
314.43
314.063
313.699
313.339
312.983
312.631
312.284
311.942
311.604
311.271
310.943
310.621
310.303
309.991
309.684
309.382
309.085
308.794
308.507
308.226
307.949
307.677
307.41
307.146
306.887
306.631
306.379
306.131
305.885
305.642
305.402
305.164
304.929
304.695
304.463
304.232
304.003
303.775
303.547
303.32
303.094
302.868
302.642
302.416
302.19
301.964
301.737
301.509
301.28
301.05
300.818
300.585
300.349
300.112
299.872
299.63
299.385
299.137
298.886
298.632
298.375
298.114
297.849
297.58
297.308
297.031
296.751
296.466
296.177
295.884
295.587
295.285
294.979
294.669
294.354
294.035
293.712
293.384
293.052
292.716
292.375
292.03
291.681
291.328
290.97
290.609
290.244
315.546
315.167
314.792
314.42
314.052
313.687
313.327
312.971
312.619
312.271
311.928
311.59
311.257
310.929
310.606
310.288
309.976
309.669
309.367
309.071
308.779
308.493
308.212
307.936
307.665
307.398
307.135
306.876
306.621
306.37
306.122
305.877
305.635
305.395
305.158
304.923
304.69
304.459
304.228
304
303.772
303.545
303.319
303.093
302.868
302.642
302.417
302.191
301.966
301.739
301.512
301.283
301.054
300.823
300.59
300.355
300.119
299.879
299.638
299.393
299.146
298.896
298.642
298.385
298.124
297.859
297.591
297.319
297.043
296.762
296.478
296.189
295.896
295.599
295.297
294.991
294.681
294.366
294.047
293.724
293.396
293.064
292.728
292.387
292.042
291.693
291.339
290.982
290.62
290.254
315.532
315.152
314.776
314.404
314.035
313.67
313.309
312.952
312.6
312.251
311.908
311.569
311.235
310.907
310.584
310.266
309.953
309.646
309.345
309.049
308.758
308.472
308.192
307.916
307.645
307.379
307.117
306.86
306.606
306.356
306.109
305.865
305.624
305.385
305.149
304.915
304.683
304.452
304.223
303.995
303.768
303.542
303.317
303.092
302.867
302.642
302.418
302.193
301.968
301.742
301.516
301.288
301.06
300.83
300.598
300.364
300.128
299.89
299.649
299.406
299.159
298.909
298.656
298.4
298.139
297.875
297.607
297.336
297.06
296.78
296.496
296.207
295.914
295.617
295.316
295.01
294.7
294.385
294.066
293.742
293.415
293.082
292.746
292.405
292.06
291.71
291.357
290.999
290.637
290.271
315.512
315.132
314.756
314.383
314.013
313.648
313.286
312.928
312.574
312.225
311.88
311.541
311.206
310.877
310.554
310.235
309.923
309.616
309.315
309.019
308.728
308.444
308.164
307.889
307.62
307.355
307.094
306.838
306.585
306.336
306.091
305.848
305.609
305.372
305.137
304.904
304.673
304.444
304.216
303.989
303.763
303.538
303.314
303.09
302.866
302.642
302.419
302.195
301.971
301.747
301.521
301.295
301.068
300.839
300.608
300.376
300.141
299.904
299.665
299.422
299.177
298.928
298.675
298.42
298.16
297.897
297.629
297.358
297.083
296.803
296.519
296.231
295.938
295.642
295.34
295.034
294.724
294.41
294.091
293.767
293.439
293.107
292.77
292.429
292.083
291.734
291.38
291.022
290.659
290.292
315.488
315.107
314.73
314.356
313.986
313.619
313.256
312.897
312.542
312.192
311.846
311.505
311.17
310.84
310.516
310.197
309.884
309.578
309.276
308.981
308.691
308.407
308.129
307.856
307.587
307.324
307.065
306.81
306.56
306.313
306.069
305.828
305.59
305.355
305.122
304.89
304.661
304.433
304.207
303.981
303.757
303.533
303.31
303.087
302.865
302.642
302.42
302.198
301.975
301.752
301.528
301.303
301.078
300.85
300.622
300.391
300.158
299.922
299.684
299.443
299.199
298.951
298.7
298.445
298.186
297.924
297.657
297.386
297.112
296.833
296.549
296.261
295.969
295.672
295.371
295.065
294.755
294.441
294.121
293.798
293.47
293.137
292.8
292.459
292.113
291.763
291.409
291.05
290.687
290.32
315.459
315.077
314.699
314.325
313.954
313.586
313.222
312.861
312.504
312.152
311.804
311.462
311.125
310.794
310.469
310.151
309.838
309.531
309.23
308.935
308.646
308.364
308.086
307.815
307.548
307.287
307.03
306.777
306.529
306.284
306.042
305.804
305.568
305.335
305.104
304.874
304.647
304.421
304.196
303.972
303.749
303.527
303.306
303.084
302.863
302.642
302.421
302.2
301.979
301.758
301.536
301.313
301.09
300.864
300.637
300.409
300.178
299.944
299.708
299.468
299.225
298.979
298.729
298.475
298.218
297.956
297.691
297.421
297.147
296.868
296.585
296.297
296.005
295.709
295.408
295.102
294.793
294.478
294.159
293.835
293.507
293.174
292.837
292.495
292.149
291.799
291.445
291.085
290.722
290.353
315.424
315.042
314.664
314.289
313.917
313.548
313.182
312.819
312.46
312.105
311.755
311.411
311.072
310.74
310.415
310.095
309.782
309.476
309.175
308.881
308.593
308.311
308.036
307.766
307.502
307.243
306.988
306.738
306.492
306.25
306.012
305.776
305.543
305.312
305.083
304.856
304.63
304.406
304.184
303.962
303.741
303.521
303.301
303.081
302.862
302.642
302.423
302.203
301.984
301.765
301.545
301.325
301.103
300.881
300.656
300.43
300.201
299.97
299.736
299.498
299.257
299.012
298.764
298.511
298.255
297.994
297.73
297.461
297.188
296.91
296.627
296.34
296.048
295.752
295.451
295.146
294.836
294.522
294.202
293.878
293.55
293.216
292.879
292.537
292.192
291.841
291.487
291.127
290.763
290.393
315.384
315.002
314.623
314.248
313.876
313.506
313.138
312.772
312.41
312.051
311.698
311.351
311.01
310.677
310.351
310.031
309.718
309.412
309.111
308.817
308.531
308.25
307.977
307.71
307.448
307.192
306.941
306.694
306.451
306.212
305.976
305.744
305.514
305.286
305.059
304.835
304.612
304.39
304.17
303.95
303.732
303.514
303.296
303.078
302.86
302.641
302.423
302.206
301.989
301.772
301.555
301.338
301.119
300.899
300.678
300.454
300.228
300
299.768
299.533
299.294
299.051
298.804
298.552
298.297
298.038
297.775
297.508
297.236
296.958
296.676
296.389
296.097
295.801
295.501
295.196
294.887
294.572
294.253
293.928
293.599
293.265
292.927
292.586
292.24
291.89
291.535
291.176
290.811
290.44
315.338
314.956
314.578
314.204
313.831
313.46
313.09
312.72
312.353
311.99
311.632
311.281
310.939
310.604
310.277
309.958
309.645
309.338
309.038
308.744
308.458
308.18
307.909
307.645
307.387
307.134
306.886
306.643
306.404
306.169
305.937
305.709
305.482
305.257
305.034
304.811
304.591
304.372
304.154
303.938
303.722
303.507
303.291
303.075
302.858
302.64
302.424
302.208
301.993
301.779
301.566
301.352
301.137
300.92
300.702
300.481
300.259
300.034
299.806
299.574
299.337
299.095
298.849
298.599
298.345
298.088
297.827
297.561
297.29
297.014
296.732
296.445
296.153
295.857
295.557
295.253
294.944
294.63
294.311
293.985
293.655
293.32
292.981
292.639
292.294
291.945
291.591
291.232
290.866
290.495
315.284
314.904
314.528
314.156
313.785
313.414
313.04
312.666
312.292
311.921
311.556
311.2
310.855
310.519
310.193
309.875
309.563
309.256
308.954
308.661
308.375
308.099
307.831
307.572
307.319
307.07
306.826
306.586
306.351
306.12
305.894
305.67
305.448
305.227
305.006
304.786
304.567
304.351
304.137
303.924
303.713
303.501
303.287
303.072
302.856
302.639
302.423
302.208
301.996
301.786
301.577
301.367
301.156
300.943
300.728
300.512
300.293
300.073
299.849
299.62
299.386
299.146
298.901
298.651
298.399
298.143
297.885
297.622
297.353
297.078
296.795
296.507
296.214
295.917
295.618
295.316
295.009
294.697
294.377
294.05
293.717
293.379
293.039
292.698
292.354
292.008
291.655
291.297
290.931
290.558
315.222
314.845
314.474
314.107
313.741
313.37
312.993
312.61
312.226
311.843
311.468
311.105
310.756
310.421
310.099
309.784
309.473
309.165
308.861
308.565
308.279
308.005
307.742
307.489
307.243
307
306.759
306.522
306.291
306.065
305.846
305.63
305.413
305.196
304.978
304.759
304.541
304.326
304.116
303.91
303.704
303.496
303.286
303.071
302.854
302.636
302.419
302.206
301.997
301.791
301.588
301.385
301.179
300.969
300.757
300.544
300.331
300.117
299.899
299.675
299.444
299.204
298.958
298.708
298.455
298.203
297.949
297.691
297.425
297.151
296.867
296.576
296.279
295.981
295.683
295.385
295.083
294.773
294.453
294.122
293.785
293.442
293.1
292.759
292.419
292.077
291.728
291.371
291.005
290.632
315.147
314.777
314.412
314.058
313.704
313.334
312.953
312.558
312.157
311.753
311.363
310.989
310.638
310.305
309.993
309.688
309.378
309.068
308.755
308.455
308.166
307.895
307.639
307.398
307.163
306.926
306.688
306.45
306.222
306.002
305.794
305.589
305.38
305.168
304.949
304.73
304.509
304.296
304.09
303.894
303.698
303.497
303.29
303.074
302.854
302.63
302.411
302.197
301.992
301.792
301.6
301.407
301.206
301
300.787
300.577
300.369
300.165
299.959
299.741
299.513
299.271
299.023
298.766
298.513
298.263
298.019
297.772
297.51
297.238
296.949
296.652
296.346
296.046
295.749
295.461
295.169
294.862
294.543
294.206
293.86
293.505
293.158
292.817
292.488
292.157
291.813
291.458
291.09
290.717
315.053
314.701
314.333
314.011
313.688
313.313
312.936
312.511
312.096
311.641
311.237
310.838
310.493
310.16
309.877
309.6
309.285
308.974
308.632
308.328
308.026
307.765
307.512
307.297
307.088
306.851
306.618
306.365
306.141
305.922
305.736
305.555
305.351
305.148
304.923
304.704
304.466
304.257
304.051
303.875
303.702
303.504
303.306
303.082
302.861
302.617
302.397
302.175
301.978
301.783
301.613
301.441
301.241
301.039
300.813
300.607
300.4
300.219
300.034
299.82
299.6
299.349
299.098
298.819
298.567
298.314
298.094
297.871
297.612
297.347
297.043
296.741
296.406
296.104
295.802
295.54
295.277
294.97
294.658
294.302
293.948
293.557
293.207
292.858
292.558
292.258
291.912
291.566
291.18
290.82
314.916
314.649
314.188
313.967
313.747
313.295
312.989
312.451
312.092
311.454
311.107
310.608
310.332
309.942
309.752
309.566
309.186
308.925
308.455
308.198
307.828
307.622
307.332
307.19
307.051
306.77
306.578
306.237
306.052
305.796
305.672
305.554
305.319
305.16
304.887
304.704
304.383
304.21
303.97
303.853
303.74
303.514
303.359
303.087
302.901
302.569
302.385
302.115
301.962
301.739
301.628
301.514
301.279
301.113
300.809
300.639
300.395
300.275
300.154
299.907
299.734
299.426
299.214
298.832
298.622
298.32
298.172
298.024
297.722
297.511
297.135
296.878
296.416
296.162
295.799
295.622
295.446
295.086
294.837
294.393
294.092
293.549
293.254
292.83
292.626
292.424
292.011
291.729
291.234
290.957
289.833
289.385
288.932
288.475
288.013
287.547
287.078
286.605
286.13
285.653
285.173
284.692
284.209
283.726
283.242
289.838
289.39
288.937
288.479
288.017
287.551
287.081
286.608
286.133
285.655
285.175
284.693
284.21
283.727
283.242
289.848
289.399
288.946
288.487
288.024
287.558
287.087
286.614
286.137
285.659
285.178
284.696
284.212
283.728
283.243
289.864
289.414
288.959
288.5
288.036
287.568
287.097
286.622
286.144
285.665
285.183
284.699
284.215
283.729
283.243
289.884
289.434
288.978
288.517
288.052
287.582
287.109
286.633
286.154
285.672
285.189
284.704
284.218
283.731
283.244
289.911
289.459
289.001
288.539
288.071
287.6
287.125
286.646
286.165
285.682
285.197
284.71
284.222
283.734
283.245
289.943
289.489
289.03
288.565
288.095
287.621
287.143
286.663
286.179
285.694
285.206
284.717
284.227
283.737
283.246
289.982
289.526
289.064
288.596
288.123
287.646
287.165
286.682
286.195
285.707
285.217
284.726
284.233
283.74
283.247
290.027
289.568
289.103
288.632
288.155
287.674
287.19
286.703
286.213
285.722
285.229
284.735
284.24
283.744
283.248
290.079
289.618
289.148
288.672
288.191
287.706
287.218
286.726
286.233
285.738
285.242
284.745
284.247
283.748
283.249
290.14
289.674
289.2
288.718
288.232
287.741
287.248
286.752
286.255
285.756
285.256
284.756
284.254
283.753
283.251
290.211
289.74
289.258
288.77
288.276
287.779
287.28
286.779
286.278
285.775
285.271
284.767
284.262
283.758
283.253
290.295
289.815
289.324
288.825
288.323
287.819
287.314
286.808
286.301
285.794
285.287
284.779
284.271
283.763
283.254
290.397
289.903
289.396
288.885
288.373
287.861
287.349
286.837
286.325
285.814
285.302
284.791
284.279
283.768
283.256
290.531
290.004
289.472
288.945
288.422
287.901
287.383
286.866
286.35
285.834
285.318
284.803
284.288
283.773
283.258
322.735
322.205
321.675
321.145
320.615
320.085
319.554
319.022
318.489
317.955
317.418
316.877
316.328
315.763
315.151
322.734
322.201
321.668
321.135
320.602
320.068
319.534
318.999
318.462
317.923
317.38
316.833
316.276
315.703
315.096
322.732
322.197
321.661
321.126
320.589
320.052
319.515
318.976
318.435
317.893
317.346
316.795
316.236
315.665
315.082
322.731
322.193
321.655
321.116
320.577
320.037
319.497
318.955
318.411
317.865
317.316
316.762
316.203
315.637
315.068
322.73
322.189
321.648
321.107
320.565
320.023
319.479
318.934
318.388
317.839
317.288
316.733
316.175
315.612
315.044
322.728
322.185
321.642
321.098
320.554
320.009
319.463
318.915
318.366
317.816
317.263
316.707
316.149
315.59
315.031
322.727
322.182
321.636
321.09
320.543
319.995
319.447
318.897
318.346
317.794
317.239
316.683
316.125
315.568
315.016
322.726
322.178
321.63
321.082
320.533
319.983
319.432
318.881
318.328
317.773
317.217
316.66
316.101
315.543
314.984
322.725
322.175
321.625
321.074
320.523
319.971
319.418
318.865
318.31
317.753
317.196
316.637
316.077
315.517
314.962
322.724
322.172
321.62
321.067
320.514
319.96
319.405
318.85
318.293
317.735
317.175
316.615
316.053
315.489
314.921
322.723
322.169
321.615
321.06
320.505
319.949
319.393
318.835
318.277
317.717
317.156
316.594
316.03
315.464
314.899
322.722
322.166
321.61
321.054
320.497
319.939
319.381
318.822
318.262
317.7
317.138
316.574
316.008
315.44
314.866
322.721
322.163
321.606
321.047
320.489
319.929
319.37
318.809
318.247
317.685
317.121
316.555
315.988
315.419
314.849
322.72
322.161
321.601
321.042
320.481
319.92
319.359
318.797
318.234
317.67
317.104
316.538
315.97
315.399
314.824
322.72
322.159
321.597
321.036
320.474
319.912
319.349
318.785
318.221
317.655
317.089
316.522
315.953
315.383
314.813
322.719
322.156
321.594
321.031
320.467
319.904
319.339
318.774
318.209
317.642
317.075
316.506
315.937
315.368
314.802
322.718
322.154
321.59
321.026
320.461
319.896
319.33
318.764
318.197
317.629
317.061
316.491
315.921
315.351
314.779
322.717
322.152
321.587
321.021
320.455
319.889
319.322
318.754
318.186
317.617
317.047
316.477
315.906
315.334
314.765
322.717
322.15
321.583
321.017
320.449
319.882
319.314
318.745
318.176
317.606
317.035
316.463
315.89
315.316
314.739
322.716
322.148
321.58
321.012
320.444
319.875
319.306
318.736
318.166
317.595
317.023
316.45
315.876
315.301
314.725
322.716
322.147
321.578
321.008
320.439
319.869
319.299
318.728
318.156
317.584
317.011
316.438
315.863
315.287
314.706
322.715
322.145
321.575
321.005
320.434
319.863
319.292
318.72
318.147
317.574
317.001
316.426
315.851
315.275
314.698
322.714
322.143
321.572
321.001
320.429
319.857
319.285
318.712
318.139
317.565
316.991
316.416
315.84
315.264
314.69
322.714
322.142
321.57
320.998
320.425
319.852
319.279
318.705
318.131
317.556
316.981
316.405
315.829
315.252
314.675
322.714
322.141
321.568
320.994
320.421
319.847
319.273
318.698
318.123
317.548
316.972
316.395
315.818
315.241
314.665
322.713
322.139
321.565
320.991
320.417
319.842
319.267
318.692
318.116
317.54
316.963
316.385
315.807
315.229
314.649
322.713
322.138
321.563
320.988
320.413
319.838
319.262
318.686
318.109
317.532
316.954
316.376
315.797
315.218
314.639
322.712
322.137
321.561
320.986
320.41
319.834
319.257
318.68
318.103
317.525
316.946
316.367
315.787
315.206
314.622
322.712
322.136
321.56
320.983
320.407
319.83
319.253
318.675
318.097
317.518
316.939
316.359
315.778
315.196
314.613
322.712
322.135
321.558
320.981
320.404
319.826
319.249
318.67
318.092
317.512
316.932
316.352
315.77
315.187
314.601
322.711
322.134
321.557
320.979
320.401
319.823
319.245
318.666
318.086
317.507
316.926
316.345
315.763
315.18
314.596
322.711
322.133
321.555
320.977
320.399
319.82
319.241
318.662
318.082
317.501
316.92
316.339
315.756
315.174
314.592
322.711
322.132
321.554
320.975
320.396
319.817
319.238
318.658
318.077
317.497
316.915
316.333
315.75
315.167
314.583
322.711
322.132
321.553
320.974
320.394
319.815
319.235
318.655
318.074
317.492
316.91
316.328
315.745
315.161
314.578
322.71
322.131
321.552
320.972
320.393
319.813
319.232
318.651
318.07
317.488
316.906
316.323
315.74
315.155
314.57
322.71
322.131
321.551
320.971
320.391
319.811
319.23
318.649
318.067
317.485
316.902
316.319
315.735
315.15
314.565
322.71
322.13
321.55
320.97
320.39
319.809
319.228
318.647
318.065
317.482
316.899
316.315
315.731
315.145
314.558
322.71
322.13
321.55
320.969
320.389
319.808
319.226
318.645
318.062
317.48
316.896
316.312
315.727
315.141
314.555
322.71
322.13
321.549
320.969
320.388
319.807
319.225
318.643
318.061
317.478
316.894
316.31
315.725
315.138
314.551
322.71
322.129
321.549
320.968
320.387
319.806
319.224
318.642
318.059
317.476
316.892
316.308
315.723
315.136
314.549
322.71
322.129
321.549
320.968
320.387
319.805
319.224
318.641
318.059
317.475
316.891
316.307
315.721
315.135
314.548
322.71
322.129
321.548
320.968
320.386
319.805
319.223
318.641
318.058
317.475
316.891
316.306
315.721
315.134
314.547
322.71
322.129
321.548
320.968
320.387
319.805
319.223
318.641
318.058
317.475
316.891
316.306
315.721
315.134
314.547
322.71
322.129
321.549
320.968
320.387
319.806
319.224
318.642
318.059
317.476
316.892
316.307
315.722
315.135
314.548
322.71
322.129
321.549
320.968
320.387
319.806
319.225
318.643
318.06
317.477
316.893
316.308
315.723
315.137
314.549
322.71
322.13
321.549
320.969
320.388
319.807
319.226
318.644
318.061
317.478
316.895
316.31
315.725
315.139
314.553
322.71
322.13
321.55
320.97
320.389
319.809
319.227
318.646
318.063
317.48
316.897
316.313
315.728
315.142
314.555
322.71
322.131
321.551
320.971
320.391
319.81
319.229
318.648
318.066
317.483
316.9
316.316
315.731
315.145
314.56
322.71
322.131
321.552
320.972
320.392
319.812
319.231
318.65
318.069
317.486
316.903
316.319
315.735
315.149
314.562
322.711
322.132
321.553
320.974
320.394
319.814
319.234
318.653
318.072
317.49
316.907
316.324
315.739
315.153
314.565
322.711
322.132
321.554
320.975
320.396
319.817
319.237
318.657
318.076
317.494
316.912
316.329
315.745
315.159
314.572
322.711
322.133
321.555
320.977
320.399
319.82
319.241
318.661
318.081
317.499
316.918
316.335
315.751
315.166
314.578
322.711
322.134
321.557
320.979
320.401
319.823
319.245
318.665
318.086
317.505
316.924
316.342
315.758
315.174
314.589
322.712
322.135
321.558
320.982
320.404
319.827
319.249
318.67
318.091
317.511
316.931
316.349
315.767
315.183
314.597
322.712
322.136
321.56
320.984
320.408
319.831
319.253
318.676
318.097
317.518
316.938
316.357
315.776
315.194
314.613
322.712
322.137
321.562
320.987
320.411
319.835
319.259
318.681
318.104
317.525
316.946
316.366
315.786
315.205
314.622
322.713
322.139
321.564
320.99
320.415
319.84
319.264
318.688
318.111
317.533
316.955
316.376
315.796
315.216
314.637
322.713
322.14
321.567
320.993
320.419
319.845
319.27
318.695
318.119
317.542
316.964
316.386
315.806
315.226
314.644
322.714
322.142
321.569
320.996
320.424
319.85
319.276
318.702
318.127
317.551
316.974
316.397
315.818
315.237
314.652
322.714
322.143
321.572
321
320.428
319.856
319.283
318.71
318.136
317.561
316.985
316.409
315.83
315.25
314.669
322.715
322.145
321.575
321.004
320.433
319.862
319.29
318.718
318.145
317.572
316.997
316.421
315.844
315.265
314.682
322.716
322.147
321.577
321.008
320.439
319.869
319.298
318.727
318.155
317.583
317.01
316.435
315.86
315.283
314.705
322.716
322.148
321.581
321.012
320.444
319.875
319.306
318.737
318.166
317.595
317.023
316.45
315.876
315.301
314.721
322.717
322.15
321.584
321.017
320.45
319.883
319.315
318.746
318.177
317.608
317.037
316.466
315.894
315.322
314.753
322.717
322.152
321.587
321.022
320.456
319.89
319.324
318.757
318.189
317.621
317.052
316.482
315.912
315.341
314.77
322.718
322.155
321.591
321.027
320.463
319.898
319.333
318.768
318.201
317.635
317.067
316.499
315.93
315.362
314.797
322.719
322.157
321.595
321.032
320.469
319.906
319.343
318.779
318.214
317.649
317.083
316.516
315.948
315.379
314.809
322.72
322.159
321.598
321.038
320.476
319.915
319.353
318.791
318.228
317.664
317.099
316.534
315.967
315.397
314.823
322.721
322.162
321.603
321.043
320.484
319.924
319.364
318.803
318.242
317.68
317.117
316.553
315.987
315.42
314.851
322.721
322.164
321.607
321.049
320.491
319.933
319.375
318.816
318.256
317.696
317.135
316.573
316.009
315.443
314.871
322.722
322.167
321.611
321.055
320.499
319.943
319.386
318.829
318.271
317.713
317.154
316.594
316.033
315.47
314.908
322.723
322.169
321.615
321.061
320.507
319.953
319.398
318.842
318.286
317.73
317.173
316.616
316.057
315.498
314.933
322.724
322.172
321.62
321.068
320.515
319.963
319.41
318.856
318.302
317.748
317.193
316.638
316.083
315.529
314.979
322.725
322.175
321.625
321.074
320.524
319.973
319.422
318.871
318.319
317.766
317.214
316.661
316.108
315.556
315.004
322.726
322.178
321.63
321.081
320.533
319.984
319.435
318.885
318.335
317.785
317.234
316.684
316.133
315.584
315.042
322.727
322.181
321.635
321.088
320.542
319.995
319.448
318.9
318.352
317.804
317.255
316.706
316.157
315.608
315.059
322.728
322.184
321.64
321.095
320.551
320.006
319.461
318.915
318.369
317.823
317.276
316.729
316.181
315.631
315.076
322.729
322.187
321.645
321.103
320.56
320.017
319.474
318.931
318.387
317.842
317.298
316.752
316.206
315.659
315.112
322.73
322.19
321.65
321.11
320.57
320.029
319.488
318.947
318.405
317.862
317.319
316.776
316.232
315.686
315.136
322.731
322.194
321.656
321.118
320.58
320.041
319.502
318.963
318.423
317.883
317.342
316.801
316.259
315.718
315.178
322.732
322.197
321.662
321.126
320.59
320.054
319.517
318.98
318.442
317.903
317.364
316.825
316.286
315.747
315.205
322.734
322.201
321.668
321.134
320.601
320.066
319.532
318.997
318.461
317.924
317.387
316.85
316.314
315.78
315.253
322.735
322.204
321.674
321.143
320.611
320.08
319.547
319.014
318.48
317.946
317.41
316.875
316.34
315.807
315.276
322.736
322.208
321.68
321.151
320.623
320.093
319.563
319.032
318.5
317.967
317.434
316.899
316.365
315.832
315.307
322.737
322.212
321.686
321.16
320.634
320.107
319.58
319.051
318.521
317.99
317.457
316.923
316.388
315.853
315.321
322.739
322.216
321.693
321.17
320.646
320.122
319.597
319.071
318.543
318.014
317.482
316.948
316.411
315.871
315.331
322.74
322.22
321.7
321.179
320.659
320.137
319.615
319.091
318.566
318.039
317.509
316.975
316.436
315.891
315.344
322.741
322.224
321.707
321.189
320.671
320.153
319.634
319.113
318.591
318.067
317.539
317.006
316.465
315.913
315.349
322.743
322.229
321.714
321.2
320.685
320.169
319.653
319.136
318.618
318.097
317.572
317.042
316.501
315.942
315.345
322.744
322.233
321.722
321.21
320.698
320.186
319.674
319.16
318.646
318.129
317.61
317.085
316.551
315.998
315.394
290.712
290.1
289.538
288.997
288.464
287.937
287.413
286.892
286.371
285.851
285.332
284.814
284.295
283.777
283.259
290.758
290.152
289.585
289.037
288.499
287.967
287.439
286.914
286.39
285.867
285.345
284.824
284.302
283.781
283.26
290.746
290.176
289.617
289.069
288.53
287.995
287.464
286.935
286.408
285.882
285.357
284.833
284.309
283.785
283.262
290.747
290.193
289.642
289.097
288.556
288.02
287.486
286.955
286.425
285.897
285.369
284.842
284.316
283.789
283.263
290.752
290.208
289.663
289.121
288.58
288.043
287.507
286.974
286.442
285.911
285.381
284.851
284.322
283.793
283.264
290.761
290.223
289.683
289.142
288.602
288.064
287.527
286.992
286.457
285.924
285.392
284.86
284.328
283.797
283.266
290.772
290.241
289.703
289.163
288.624
288.084
287.546
287.009
286.472
285.937
285.402
284.868
284.334
283.8
283.267
290.798
290.263
289.725
289.185
288.644
288.104
287.564
287.025
286.487
285.949
285.412
284.876
284.34
283.804
283.268
290.819
290.286
289.747
289.206
288.664
288.123
287.581
287.041
286.501
285.961
285.422
284.883
284.345
283.807
283.269
290.86
290.314
289.771
289.228
288.685
288.141
287.598
287.056
286.514
285.972
285.431
284.891
284.35
283.81
283.27
290.883
290.34
289.795
289.25
288.705
288.16
287.615
287.071
286.527
285.984
285.441
284.898
284.355
283.813
283.271
290.921
290.368
289.819
289.271
288.724
288.178
287.631
287.085
286.54
285.994
285.45
284.905
284.36
283.816
283.272
290.942
290.392
289.842
289.293
288.744
288.195
287.647
287.1
286.552
286.005
285.458
284.912
284.365
283.819
283.273
290.974
290.417
289.864
289.313
288.763
288.213
287.663
287.113
286.564
286.015
285.467
284.918
284.37
283.822
283.274
290.989
290.438
289.886
289.334
288.782
288.23
287.678
287.127
286.576
286.025
285.475
284.925
284.375
283.825
283.275
291.005
290.459
289.907
289.354
288.801
288.247
287.694
287.141
286.588
286.035
285.483
284.931
284.379
283.827
283.276
291.038
290.484
289.93
289.375
288.819
288.264
287.709
287.154
286.599
286.045
285.491
284.937
284.384
283.83
283.277
291.061
290.509
289.953
289.395
288.838
288.28
287.723
287.167
286.61
286.054
285.499
284.943
284.388
283.833
283.278
291.104
290.538
289.976
289.416
288.856
288.297
287.738
287.179
286.621
286.064
285.506
284.949
284.392
283.835
283.278
291.127
290.563
289.999
289.436
288.874
288.313
287.752
287.192
286.632
286.073
285.514
284.955
284.396
283.838
283.279
291.16
290.588
290.02
289.455
288.891
288.328
287.766
287.204
286.642
286.081
285.521
284.96
284.4
283.84
283.28
291.179
290.609
290.04
289.474
288.908
288.343
287.779
287.215
286.652
286.09
285.528
284.966
284.404
283.842
283.281
291.205
290.63
290.059
289.491
288.924
288.357
287.792
287.227
286.662
286.098
285.534
284.971
284.408
283.845
283.281
291.217
290.647
290.077
289.507
288.939
288.371
287.804
287.238
286.672
286.106
285.541
284.976
284.411
283.847
283.282
291.229
290.663
290.093
289.523
288.954
288.385
287.816
287.248
286.681
286.114
285.547
284.981
284.415
283.849
283.283
291.254
290.682
290.11
289.539
288.968
288.397
287.828
287.258
286.689
286.121
285.553
284.985
284.418
283.851
283.284
291.27
290.7
290.127
289.554
288.982
288.41
287.839
287.268
286.698
286.128
285.559
284.99
284.421
283.853
283.284
291.3
290.72
290.144
289.569
288.995
288.422
287.849
287.277
286.706
286.135
285.564
284.994
284.424
283.855
283.285
291.315
290.737
290.159
289.583
289.007
288.433
287.859
287.286
286.714
286.141
285.57
284.998
284.427
283.856
283.285
291.338
290.754
290.174
289.596
289.019
288.444
287.869
287.295
286.721
286.148
285.575
285.002
284.43
283.858
283.286
291.35
290.768
290.187
289.608
289.031
288.454
287.878
287.302
286.728
286.153
285.58
285.006
284.433
283.86
283.287
291.366
290.781
290.199
289.62
289.041
288.463
287.886
287.31
286.734
286.159
285.584
285.01
284.435
283.861
283.287
291.373
290.791
290.21
289.63
289.051
288.472
287.894
287.317
286.74
286.164
285.588
285.013
284.438
283.863
283.287
291.38
290.801
290.22
289.64
289.06
288.481
287.902
287.324
286.746
286.169
285.593
285.016
284.44
283.864
283.288
291.395
290.812
290.23
289.649
289.068
288.488
287.909
287.33
286.752
286.174
285.596
285.019
284.442
283.865
283.288
291.404
290.822
290.24
289.658
289.077
288.496
287.916
287.336
286.757
286.178
285.6
285.022
284.444
283.866
283.289
291.419
290.833
290.249
289.666
289.084