/*--------------------------------*- C++ -*----------------------------------*\
| =========                 |                                                 |
| \\      /  F ield         | OpenFOAM: The Open Source CFD Toolbox           |
|  \\    /   O peration     | Version:  5.x                                   |
|   \\  /    A nd           | Web:      www.OpenFOAM.org                      |
|    \\/     M anipulation  |                                                 |
\*---------------------------------------------------------------------------*/
FoamFile
{
    version     2.0;
    format      ascii;
    class       volScalarField;
    location    "4.3";
    object      gradTx;
}
// * * * * * * * * * * * * * * * * * * * * * * * * * * * * * * * * * * * * * //

dimensions      [0 -1 0 1 0 0 0];

internalField   nonuniform List<scalar> 
6300
(
-50.0448
-50.0262
-49.9887
-49.9323
-49.8569
-49.7622
-49.6484
-49.5155
-49.3639
-49.1943
-49.0078
-48.8057
-48.5896
-48.3612
-48.1218
-50.0639
-50.0452
-50.0079
-49.9517
-49.8764
-49.7818
-49.6678
-49.5345
-49.3821
-49.2115
-49.0236
-48.82
-48.6023
-48.3725
-48.1323
-50.1018
-50.0833
-50.0463
-49.9905
-49.9155
-49.821
-49.7068
-49.5728
-49.4191
-49.2464
-49.0557
-48.8487
-48.6275
-48.3947
-48.1526
-50.1585
-50.1403
-50.1038
-50.0487
-49.9743
-49.8803
-49.766
-49.6311
-49.4754
-49.2995
-49.1043
-48.8918
-48.6647
-48.4265
-48.1807
-50.2337
-50.216
-50.1804
-50.1264
-50.0532
-49.9601
-49.8461
-49.7104
-49.5524
-49.3722
-49.1707
-48.9499
-48.7135
-48.4662
-48.2137
-50.3268
-50.3099
-50.2757
-50.2235
-50.1524
-50.0611
-49.9482
-49.8123
-49.652
-49.4666
-49.2566
-49.0241
-48.7734
-48.5114
-48.2468
-50.4372
-50.4213
-50.3892
-50.3398
-50.272
-50.184
-50.0738
-49.9388
-49.7769
-49.586
-49.3654
-49.1167
-48.845
-48.5595
-48.2738
-50.5638
-50.5494
-50.5202
-50.4749
-50.4122
-50.3296
-50.2243
-50.0928
-49.9311
-49.7353
-49.5026
-49.2328
-48.9307
-48.6082
-48.2858
-50.7051
-50.6927
-50.6674
-50.6279
-50.5724
-50.4981
-50.4013
-50.2772
-50.1196
-49.9219
-49.6773
-49.3816
-49.037
-48.6571
-48.2718
-50.859
-50.8492
-50.8291
-50.7973
-50.7518
-50.6895
-50.6061
-50.4953
-50.3487
-50.1556
-49.9033
-49.5797
-49.1788
-48.7117
-48.2193
-51.0231
-51.0165
-51.0027
-50.9806
-50.9482
-50.9024
-50.8385
-50.7495
-50.6246
-50.4488
-50.201
-49.8553
-49.3872
-48.7917
-48.1172
-51.1941
-51.1912
-51.185
-51.1745
-51.1583
-51.1337
-51.0965
-51.0397
-50.9518
-50.8142
-50.5968
-50.2535
-49.7232
-48.951
-47.9637
-51.3683
-51.3695
-51.3717
-51.3745
-51.3771
-51.378
-51.3743
-51.3612
-51.329
-51.2597
-51.1186
-50.8391
-50.3014
-49.3257
-47.7869
-51.5416
-51.5471
-51.5582
-51.5751
-51.598
-51.627
-51.662
-51.7019
-51.7434
-51.7773
-51.779
-51.683
-51.3181
-50.2639
-47.7345
-51.7097
-51.7194
-51.7392
-51.77
-51.813
-51.8704
-51.945
-52.0413
-52.1657
-52.3274
-52.5373
-52.7963
-53.0245
-52.6779
-48.7001
-47.8937
-47.6785
-47.4557
-47.224
-46.9819
-46.7275
-46.4584
-46.1729
-45.869
-45.5457
-45.2025
-44.8397
-44.4583
-44.0598
-43.6463
-43.2202
-42.7841
-42.3407
-41.8929
-41.4436
-40.9957
-40.5521
-40.1153
-39.688
-39.2723
-38.8699
-38.4824
-38.1108
-37.7555
-37.4168
-37.0944
-36.7877
-36.4958
-36.2176
-35.9517
-35.6969
-35.4516
-35.2145
-34.9843
-34.7598
-34.5398
-34.3233
-34.1095
-33.8977
-33.6877
-33.4795
-33.2736
-33.0709
-32.8725
-32.6799
-32.4945
-32.3178
-32.1513
-31.9961
-31.8531
-31.7232
-31.6066
-31.5038
-31.4145
-31.3386
-31.2757
-31.2255
-31.1873
-31.161
-31.1461
-31.1424
-31.1497
-31.168
-31.1971
-31.2369
-31.2874
-31.3486
-31.4205
-31.5032
-31.5968
-31.7015
-31.8172
-31.9439
-32.0817
-32.2302
-32.3892
-32.5585
-32.7376
-32.926
-33.1231
-33.3278
-33.539
-33.7552
-33.9746
-34.1953
-47.9042
-47.6899
-47.4687
-47.2394
-47.0002
-46.7487
-46.4827
-46.1995
-45.8973
-45.5747
-45.2311
-44.8669
-44.4832
-44.0818
-43.6648
-43.2349
-42.7948
-42.3474
-41.8954
-41.442
-40.99
-40.5424
-40.1021
-39.6716
-39.2532
-38.8489
-38.46
-38.0875
-37.732
-37.3936
-37.072
-36.7666
-36.4763
-36.2
-35.9361
-35.6833
-35.4399
-35.2047
-34.9763
-34.7534
-34.5349
-34.3197
-34.1067
-33.8953
-33.6852
-33.4763
-33.2691
-33.0647
-32.8643
-32.6695
-32.4819
-32.3032
-32.135
-31.9783
-31.8343
-31.7037
-31.5869
-31.4841
-31.3951
-31.3197
-31.2574
-31.2078
-31.1702
-31.1443
-31.1297
-31.1262
-31.1338
-31.1522
-31.1813
-31.2212
-31.2717
-31.3328
-31.4046
-31.4871
-31.5806
-31.6852
-31.8009
-31.9278
-32.0658
-32.2146
-32.3741
-32.544
-32.7238
-32.9132
-33.1116
-33.318
-33.5314
-33.7501
-33.9723
-34.1961
-47.9244
-47.7117
-47.4938
-47.2695
-47.0363
-46.7915
-46.5318
-46.254
-45.9554
-45.6343
-45.2898
-44.9226
-44.5341
-44.1264
-43.7023
-43.2648
-42.8166
-42.3609
-41.9005
-41.4386
-40.9782
-40.5227
-40.075
-39.6381
-39.2144
-38.8059
-38.4141
-38.04
-37.6841
-37.3464
-37.0266
-36.7239
-36.4371
-36.1647
-35.9049
-35.6562
-35.4168
-35.1854
-34.9606
-34.741
-34.5255
-34.3128
-34.1017
-33.8913
-33.6809
-33.4706
-33.2608
-33.0527
-32.848
-32.6486
-32.4565
-32.2737
-32.1018
-31.9423
-31.7962
-31.6643
-31.5469
-31.4442
-31.356
-31.2817
-31.2208
-31.1725
-31.136
-31.111
-31.097
-31.094
-31.1018
-31.1205
-31.1499
-31.1899
-31.2404
-31.3014
-31.3728
-31.455
-31.5481
-31.6524
-31.7681
-31.8953
-32.0338
-32.1833
-32.3436
-32.5145
-32.6958
-32.8871
-33.088
-33.2979
-33.5155
-33.7393
-33.9674
-34.1975
-47.9517
-47.7413
-47.5287
-47.3125
-47.0897
-46.8562
-46.6075
-46.3388
-46.0464
-45.7277
-45.3818
-45.0094
-44.6128
-44.1951
-43.7597
-43.3102
-42.8497
-42.3814
-41.9082
-41.4332
-40.9599
-40.4919
-40.0328
-39.5859
-39.154
-38.7393
-38.3432
-37.9666
-37.6102
-37.2738
-36.957
-36.6587
-36.3775
-36.1113
-35.8581
-35.6158
-35.3825
-35.1568
-34.9373
-34.7229
-34.5122
-34.3037
-34.0959
-33.8873
-33.6768
-33.4641
-33.25
-33.0359
-32.8241
-32.6172
-32.4178
-32.2283
-32.0509
-31.8869
-31.7377
-31.6038
-31.4857
-31.3834
-31.2966
-31.2244
-31.1659
-31.1198
-31.0852
-31.0615
-31.0484
-31.0459
-31.0541
-31.0731
-31.1029
-31.1432
-31.1938
-31.2545
-31.3253
-31.4066
-31.499
-31.6029
-31.7186
-31.8462
-31.9855
-32.136
-32.2976
-32.4698
-32.6528
-32.8466
-33.0512
-33.266
-33.4902
-33.722
-33.9593
-34.1992
-47.9822
-47.7744
-47.5693
-47.3654
-47.1587
-46.9433
-46.7122
-46.4583
-46.1757
-45.8607
-45.5121
-45.1314
-44.7223
-44.2895
-43.8378
-43.3717
-42.8946
-42.4093
-41.9187
-41.4258
-40.9343
-40.4487
-39.9734
-39.5125
-39.0693
-38.6461
-38.2443
-37.8647
-37.5077
-37.1732
-36.8608
-36.5692
-36.2964
-36.0396
-35.7959
-35.5626
-35.3376
-35.1194
-34.907
-34.6996
-34.4958
-34.2939
-34.0914
-33.886
-33.6758
-33.46
-33.2393
-33.016
-32.7932
-32.5749
-32.3646
-32.1657
-31.9804
-31.8104
-31.6568
-31.5204
-31.4016
-31.3003
-31.216
-31.1474
-31.0928
-31.0504
-31.0186
-30.9966
-30.9843
-30.982
-30.9904
-31.0099
-31.0404
-31.0814
-31.1323
-31.1926
-31.2623
-31.3421
-31.433
-31.5359
-31.6515
-31.7798
-31.9205
-32.0726
-32.2356
-32.4092
-32.5939
-32.7903
-32.999
-33.2203
-33.4534
-33.6964
-33.9468
-34.201
-48.0095
-47.8038
-47.6088
-47.4229
-47.2406
-47.0533
-46.85
-46.6194
-46.3522
-46.0424
-45.689
-45.2948
-44.8664
-44.4114
-43.9372
-43.4494
-42.9515
-42.4454
-41.9329
-41.4166
-40.9008
-40.3911
-39.8936
-39.4139
-38.9561
-38.5224
-38.1138
-37.7306
-37.373
-37.0412
-36.735
-36.453
-36.1924
-35.9492
-35.719
-35.4978
-35.2831
-35.0738
-34.8698
-34.6712
-34.477
-34.285
-34.0913
-33.8918
-33.6828
-33.4628
-33.2325
-32.9952
-32.7561
-32.5209
-32.2953
-32.0833
-31.8878
-31.7102
-31.5512
-31.4116
-31.292
-31.1926
-31.1126
-31.05
-31.002
-30.9654
-30.9376
-30.9176
-30.9054
-30.9025
-30.9105
-30.9305
-30.9624
-31.005
-31.0569
-31.1167
-31.1845
-31.2613
-31.3492
-31.4502
-31.5656
-31.6954
-31.8385
-31.9931
-32.1578
-32.3323
-32.5176
-32.7156
-32.9284
-33.1572
-33.4017
-33.6598
-33.9281
-34.2021
-48.0241
-47.818
-47.6355
-47.4753
-47.3303
-47.1869
-47.0275
-46.8337
-46.5901
-46.2876
-45.9248
-45.5081
-45.0491
-44.5613
-44.0565
-43.5421
-43.0206
-42.4912
-41.9529
-41.4071
-40.8588
-40.3161
-39.7886
-39.2842
-38.8085
-38.3629
-37.9471
-37.5599
-37.2015
-36.8727
-36.5747
-36.3063
-36.0637
-35.8405
-35.6293
-35.4239
-35.2211
-35.0207
-34.825
-34.6364
-34.4554
-34.2786
-34.0998
-33.9112
-33.706
-33.4806
-33.2359
-32.9773
-32.7132
-32.4533
-32.2061
-31.9773
-31.7695
-31.583
-31.4177
-31.274
-31.1533
-31.0568
-30.9839
-30.9315
-30.8946
-30.8674
-30.8455
-30.8269
-30.8129
-30.807
-30.8131
-30.8338
-30.8686
-30.9151
-30.9696
-31.0291
-31.0933
-31.1642
-31.2461
-31.3433
-31.4586
-31.5916
-31.7396
-31.8986
-32.0655
-32.2394
-32.4225
-32.6191
-32.8342
-33.0709
-33.3298
-33.6081
-33.9009
-34.2019
-48.0113
-47.7989
-47.6302
-47.5064
-47.4181
-47.344
-47.255
-47.1201
-46.9134
-46.6198
-46.2386
-45.7826
-45.2736
-44.7362
-44.1901
-43.6454
-43.1014
-42.5502
-41.9842
-41.4015
-40.809
-40.2199
-39.6503
-39.1139
-38.6176
-38.161
-37.7394
-37.3483
-36.9874
-36.6603
-36.3718
-36.1227
-35.9074
-35.7147
-35.5313
-35.3466
-35.1558
-34.961
-34.7701
-34.5912
-34.4277
-34.2753
-34.1225
-33.9546
-33.7583
-33.5263
-33.2595
-32.9671
-32.6642
-32.3674
-32.0905
-31.8411
-31.6205
-31.4253
-31.2528
-31.1031
-30.9798
-30.8869
-30.8254
-30.7906
-30.7729
-30.7617
-30.7482
-30.7294
-30.7085
-30.6939
-30.6946
-30.7162
-30.7578
-30.8134
-30.8745
-30.9346
-30.992
-31.0509
-31.1205
-31.2101
-31.3255
-31.4658
-31.6244
-31.7924
-31.9626
-32.1329
-32.3075
-32.4957
-32.7083
-32.9524
-33.2294
-33.535
-33.8614
-34.1994
-47.9493
-47.717
-47.5604
-47.4869
-47.4856
-47.5228
-47.5489
-47.5103
-47.3621
-47.0786
-46.6606
-46.1337
-45.5396
-44.9238
-44.3218
-43.7483
-43.1929
-42.631
-42.0396
-41.4106
-40.7545
-40.0959
-39.4648
-38.8859
-38.3697
-37.9092
-37.4881
-37.0936
-36.7247
-36.3927
-36.1124
-35.8907
-35.7188
-35.5756
-35.4356
-35.2785
-35.0962
-34.8961
-34.6981
-34.5237
-34.3842
-34.2727
-34.1672
-34.0389
-33.8623
-33.6222
-33.3198
-32.9722
-32.6066
-32.2529
-31.935
-31.6637
-31.4346
-31.235
-31.055
-30.8941
-30.7622
-30.6718
-30.6285
-30.6247
-30.642
-30.6589
-30.6585
-30.6345
-30.595
-30.5585
-30.5458
-30.5694
-30.6267
-30.7034
-30.7807
-30.8438
-30.8879
-30.9221
-30.9656
-31.0395
-31.1563
-31.3132
-31.4952
-31.6826
-31.8593
-32.0197
-32.1723
-32.3369
-32.5364
-32.786
-33.0875
-33.4315
-33.8048
-34.1939
-47.8063
-47.5264
-47.3713
-47.3637
-47.4978
-47.7179
-47.9362
-48.0587
-48.0058
-47.7316
-47.2397
-46.5818
-45.8373
-45.0917
-44.4128
-43.8253
-43.2941
-42.7546
-42.1497
-41.459
-40.7038
-39.9326
-39.2043
-38.568
-38.042
-37.6007
-37.1988
-36.8022
-36.4093
-36.051
-35.7689
-35.5871
-35.4893
-35.432
-35.3647
-35.2469
-35.0623
-34.8285
-34.5922
-34.4062
-34.3007
-34.2617
-34.2445
-34.1932
-34.0576
-33.8078
-33.4454
-33.0032
-32.5319
-32.0869
-31.7124
-31.4256
-31.206
-31.0166
-30.8294
-30.6434
-30.4848
-30.3887
-30.3747
-30.4281
-30.5114
-30.5809
-30.6023
-30.5621
-30.4768
-30.3885
-30.3446
-30.3737
-30.4674
-30.5922
-30.7071
-30.7798
-30.7981
-30.7795
-30.7665
-30.8068
-30.929
-31.1242
-31.358
-31.5879
-31.7791
-31.9175
-32.0194
-32.1276
-32.2919
-32.5448
-32.8837
-33.2855
-33.7249
-34.1842
-47.5355
-47.1561
-46.9702
-47.0364
-47.3865
-47.9155
-48.462
-48.8597
-48.9685
-48.6982
-48.0581
-47.155
-46.1367
-45.1637
-44.3726
-43.8215
-43.4077
-42.9724
-42.3835
-41.6007
-40.6763
-39.7078
-38.8116
-38.0915
-37.5927
-37.2356
-36.9023
-36.5058
-36.0442
-35.5995
-35.2814
-35.1628
-35.2014
-35.303
-35.3666
-35.3119
-35.0994
-34.7644
-34.4141
-34.173
-34.1213
-34.2193
-34.3712
-34.4687
-34.4176
-34.1557
-33.686
-33.076
-32.4194
-31.8192
-31.3636
-31.0906
-30.9338
-30.7951
-30.602
-30.3531
-30.1174
-29.9873
-30.0235
-30.1884
-30.4005
-30.5723
-30.6347
-30.5543
-30.3628
-30.1543
-30.0379
-30.0848
-30.2633
-30.4948
-30.6942
-30.7938
-30.7611
-30.6286
-30.4904
-30.4558
-30.5962
-30.8795
-31.2262
-31.5484
-31.7746
-31.8677
-31.8571
-31.8371
-31.9195
-32.1794
-32.5892
-33.0852
-33.6162
-34.1671
-47.0639
-46.5076
-46.2064
-46.3009
-47.0181
-48.0881
-49.2022
-50.077
-50.4776
-50.1978
-49.2554
-47.8946
-46.3713
-44.9742
-43.9872
-43.6204
-43.5525
-43.4115
-42.8972
-41.9465
-40.7127
-39.3791
-38.1657
-37.2964
-36.9395
-36.8366
-36.6968
-36.3035
-35.6553
-34.966
-34.5067
-34.5126
-34.8229
-35.2289
-35.5392
-35.6044
-35.3129
-34.7226
-34.079
-33.6671
-33.7265
-34.0995
-34.5762
-34.9583
-35.0812
-34.8027
-34.1289
-33.2157
-32.2258
-31.3432
-30.7519
-30.5882
-30.6357
-30.6518
-30.4548
-30.0438
-29.5979
-29.3461
-29.4869
-29.8807
-30.3473
-30.7209
-30.8724
-30.7061
-30.2733
-29.7873
-29.4956
-29.6064
-29.9823
-30.4434
-30.8248
-30.9978
-30.8677
-30.4856
-30.0647
-29.8526
-30.0574
-30.543
-31.1291
-31.647
-31.9614
-31.9666
-31.7081
-31.3988
-31.2911
-31.5979
-32.1701
-32.834
-33.4785
-34.1251
-46.2372
-45.4923
-44.8737
-44.6694
-46.1426
-48.1976
-50.2877
-51.9774
-52.967
-52.6522
-51.0557
-48.8688
-46.4249
-44.1945
-42.7092
-42.9894
-43.803
-44.3889
-44.0396
-42.7005
-40.8935
-38.8776
-37.0249
-35.7641
-35.9211
-36.4911
-36.8569
-36.4685
-35.3259
-34.0016
-33.0626
-33.4243
-34.3073
-35.2928
-36.0652
-36.4108
-35.9572
-34.7578
-33.4108
-32.4827
-32.8805
-33.8306
-34.9176
-35.8214
-36.3231
-36.019
-34.9168
-33.466
-31.8779
-30.448
-29.5244
-29.7816
-30.3827
-30.8152
-30.6158
-29.7848
-28.7987
-28.1395
-28.5859
-29.468
-30.4279
-31.1891
-31.5674
-31.2417
-30.2597
-29.1402
-28.3736
-28.7456
-29.5783
-30.5067
-31.2548
-31.6379
-31.3365
-30.3978
-29.3381
-28.6482
-29.1137
-30.0613
-31.1299
-32.0381
-32.593
-32.4445
-31.6318
-30.6694
-30.0653
-30.6335
-31.6186
-32.6105
-33.3371
-33.9649
-44.4888
-44.2951
-42.9441
-40.6221
-44.4293
-48.2571
-51.9497
-54.8865
-57.3352
-56.9526
-53.7063
-50.2131
-46.1715
-42.342
-38.8892
-41.5904
-44.382
-46.7131
-46.6079
-44.1284
-41.3755
-38.1414
-35.0321
-32.1902
-34.3083
-36.44
-38.1032
-37.7199
-35.2581
-32.4829
-29.7455
-31.5857
-33.6441
-35.6639
-37.2058
-38.3682
-37.6756
-35.0055
-32.1397
-29.3889
-31.2396
-33.3645
-35.5229
-37.2636
-38.7256
-38.3845
-36.2069
-33.9138
-31.3022
-28.8237
-26.5963
-28.48
-30.3723
-31.8884
-31.6861
-29.749
-27.5286
-25.3409
-27.0571
-28.9429
-30.7946
-32.2084
-33.2758
-32.722
-30.4441
-27.9846
-25.6119
-27.2211
-29.0361
-30.8291
-32.21
-33.2634
-32.7227
-30.4839
-28.0787
-25.78
-27.4755
-29.4051
-31.3611
-32.9374
-34.2372
-33.8785
-31.7707
-29.4239
-27.1511
-29.0684
-31.0568
-32.7687
-33.3376
-33.2083
-38.763
-44.7644
-42.4133
-27.7493
-42.6868
-48.5116
-54.7006
-58.4991
-65.7809
-65.3773
-56.7131
-52.3478
-45.613
-39.9475
-26.2079
-40.0618
-45.6244
-52.5459
-52.5957
-45.9506
-42.5509
-37.2258
-32.6548
-21.474
-32.6765
-37.064
-42.2968
-41.9647
-35.6422
-30.91
-19.8367
-29.4335
-33.0367
-36.7233
-38.8934
-42.9973
-42.242
-35.5352
-30.7032
-19.6692
-29.2039
-32.8504
-36.73
-39.1071
-43.725
-43.3944
-37.6635
-34.8205
-30.5348
-26.8378
-17.7485
-27.1657
-30.9037
-35.4361
-35.2545
-30.1212
-26.2112
-16.9207
-25.2839
-28.4669
-31.7916
-33.7261
-37.3185
-36.6849
-30.8895
-26.7039
-17.1158
-25.3997
-28.5254
-31.7446
-33.6365
-37.1838
-36.5537
-30.8092
-26.6654
-17.1596
-25.4999
-28.7102
-32.1386
-34.2344
-38.2692
-37.8305
-32.2533
-28.0715
-18.2026
-27.4006
-30.8925
-34.5723
-34.3426
-29.3303
-34.4369
-34.696
-34.9468
-35.186
-35.4106
-35.6183
-35.8072
-35.9762
-36.1245
-36.2516
-36.3574
-36.4418
-36.505
-36.547
-36.568
-34.4411
-34.7039
-34.9581
-35.2001
-35.4271
-35.6365
-35.8267
-35.9965
-36.1453
-36.2725
-36.3783
-36.4626
-36.5257
-36.5676
-36.5885
-34.4496
-34.7199
-34.9809
-35.2289
-35.4605
-35.6735
-35.8662
-36.0375
-36.187
-36.3145
-36.4202
-36.5043
-36.567
-36.6087
-36.6295
-34.4626
-34.7447
-35.0165
-35.2734
-35.5122
-35.7304
-35.9265
-36.0998
-36.2502
-36.3779
-36.4833
-36.5669
-36.6291
-36.6703
-36.6908
-34.4805
-34.7795
-35.0663
-35.3357
-35.584
-35.8088
-36.0091
-36.1846
-36.3357
-36.4632
-36.5678
-36.6504
-36.7116
-36.7521
-36.7723
-34.5039
-34.826
-35.133
-35.4186
-35.6787
-35.9113
-36.116
-36.2933
-36.4445
-36.5708
-36.6738
-36.7547
-36.8144
-36.8538
-36.8734
-34.534
-34.8873
-35.2207
-35.5265
-35.8005
-36.0413
-36.2498
-36.4277
-36.5775
-36.7014
-36.8016
-36.8797
-36.9372
-36.9749
-36.9937
-34.573
-34.968
-35.3355
-35.6658
-35.9549
-36.2032
-36.4136
-36.5898
-36.7359
-36.8552
-36.9508
-37.0249
-37.0791
-37.1147
-37.1322
-34.6244
-35.0758
-35.487
-35.8459
-36.1499
-36.4028
-36.6111
-36.7816
-36.9204
-37.0324
-37.1212
-37.1895
-37.2393
-37.2719
-37.288
-34.6944
-35.2236
-35.6906
-36.0806
-36.3958
-36.6467
-36.846
-37.0047
-37.1314
-37.2322
-37.3115
-37.3722
-37.4163
-37.4451
-37.4593
-34.7922
-35.4331
-35.9707
-36.3899
-36.7057
-36.9421
-37.1213
-37.2596
-37.3678
-37.453
-37.5198
-37.5709
-37.6081
-37.6324
-37.6444
-34.9303
-35.7456
-36.3687
-36.8017
-37.0944
-37.2948
-37.4376
-37.5442
-37.6268
-37.6919
-37.7433
-37.7831
-37.8123
-37.8315
-37.841
-35.1256
-36.2496
-36.9561
-37.3525
-37.5739
-37.7045
-37.7901
-37.8529
-37.9029
-37.944
-37.978
-38.0053
-38.026
-38.0398
-38.0468
-35.447
-37.1707
-37.8544
-38.0787
-38.1427
-38.1585
-38.1653
-38.1744
-38.1874
-38.2029
-38.219
-38.2337
-38.2459
-38.2545
-38.259
-36.4902
-39.1306
-39.2113
-38.9655
-38.7581
-38.621
-38.538
-38.4919
-38.4693
-38.461
-38.4607
-38.4642
-38.4689
-38.4729
-38.4752
-51.8552
-51.8684
-51.8955
-51.9377
-51.9973
-52.0778
-52.1847
-52.3267
-52.5187
-52.7875
-53.1876
-53.8455
-55.1161
-58.2194
-68.2003
-51.9785
-51.9944
-52.0272
-52.0783
-52.1505
-52.2483
-52.3784
-52.5516
-52.7863
-53.1149
-53.6001
-54.3745
-55.7454
-58.4807
-64.5094
-52.0909
-52.1091
-52.1463
-52.2044
-52.2863
-52.3965
-52.5422
-52.734
-52.9887
-53.3335
-53.8121
-54.4897
-55.4274
-56.455
-55.796
-52.1908
-52.2107
-52.2512
-52.3142
-52.4025
-52.5204
-52.6741
-52.8726
-53.1286
-53.4595
-53.8864
-54.4246
-55.0471
-55.6007
-55.8285
-52.2773
-52.2982
-52.3408
-52.4066
-52.4983
-52.6194
-52.775
-52.9714
-53.2166
-53.5191
-53.8841
-54.3011
-54.715
-54.973
-54.7193
-52.3494
-52.3708
-52.4144
-52.4814
-52.5739
-52.6948
-52.8475
-53.0362
-53.2648
-53.5358
-53.8463
-54.1797
-54.4911
-54.701
-54.7281
-52.4068
-52.4283
-52.4719
-52.5387
-52.63
-52.7481
-52.8951
-53.0731
-53.2835
-53.5254
-53.7934
-54.0735
-54.3378
-54.5565
-54.7528
-52.4495
-52.4707
-52.5137
-52.579
-52.6679
-52.7815
-52.9211
-53.0875
-53.2804
-53.4973
-53.7332
-53.9782
-54.216
-54.428
-54.5538
-52.4776
-52.4983
-52.54
-52.6033
-52.6887
-52.797
-52.9286
-53.0835
-53.2603
-53.4565
-53.6676
-53.888
-54.1121
-54.3597
-54.7965
-52.4915
-52.5115
-52.5517
-52.6124
-52.6938
-52.7964
-52.92
-53.064
-53.2268
-53.4055
-53.5965
-53.7952
-53.992
-54.1605
-54.1095
-52.4918
-52.511
-52.5494
-52.6072
-52.6845
-52.7813
-52.8973
-53.0315
-53.182
-53.3463
-53.5212
-53.7035
-53.8914
-54.1143
-54.6147
-52.4789
-52.4972
-52.5338
-52.5887
-52.6619
-52.7532
-52.862
-52.9874
-53.1276
-53.28
-53.4417
-53.608
-53.7665
-53.876
-53.6676
-52.4536
-52.471
-52.5057
-52.5577
-52.6268
-52.7129
-52.8153
-52.933
-53.0645
-53.2076
-53.36
-53.5178
-53.6755
-53.8588
-54.3703
-52.4164
-52.4329
-52.4657
-52.5149
-52.5803
-52.6615
-52.758
-52.8689
-52.9931
-53.1292
-53.2755
-53.4277
-53.5668
-53.614
-53.1652
-52.368
-52.3836
-52.4147
-52.4612
-52.5229
-52.5996
-52.6906
-52.7955
-52.9134
-53.0439
-53.1877
-53.3467
-53.5218
-53.7142
-53.9064
-52.309
-52.3237
-52.3531
-52.397
-52.4554
-52.5278
-52.6138
-52.7129
-52.8248
-52.9497
-53.0903
-53.2545
-53.4647
-53.8149
-54.7786
-52.2399
-52.2538
-52.2816
-52.3231
-52.3782
-52.4466
-52.5278
-52.6214
-52.727
-52.8449
-52.9773
-53.1303
-53.3103
-53.49
-53.241
-52.1613
-52.1744
-52.2007
-52.24
-52.2921
-52.3567
-52.4334
-52.5216
-52.6206
-52.7302
-52.851
-52.9874
-53.1561
-53.4631
-54.6048
-52.0737
-52.0861
-52.111
-52.1481
-52.1974
-52.2585
-52.3309
-52.414
-52.5069
-52.6079
-52.7148
-52.8219
-52.9059
-52.857
-51.9596
-51.9776
-51.9894
-52.0129
-52.048
-52.0946
-52.1525
-52.221
-52.2997
-52.3873
-52.4817
-52.5793
-52.6724
-52.748
-52.8406
-53.4886
-51.8735
-51.8847
-51.9069
-51.9401
-51.9843
-52.0391
-52.1042
-52.1791
-52.2628
-52.3536
-52.4477
-52.5349
-52.5783
-52.4387
-51.4358
-51.7618
-51.7724
-51.7934
-51.8249
-51.8667
-51.9187
-51.9806
-52.0523
-52.1334
-52.2233
-52.3218
-52.4278
-52.5357
-52.6367
-52.7143
-51.643
-51.6529
-51.6728
-51.7026
-51.7421
-51.7914
-51.8504
-51.919
-51.9976
-52.0873
-52.1915
-52.3193
-52.4978
-52.8512
-54.0447
-51.5174
-51.5268
-51.5455
-51.5736
-51.611
-51.6576
-51.7134
-51.7786
-51.854
-51.9414
-52.0456
-52.1756
-52.3385
-52.4828
-51.9984
-51.3854
-51.3942
-51.4119
-51.4383
-51.4735
-51.5174
-51.5699
-51.6311
-51.7019
-51.784
-51.8826
-52.009
-52.1919
-52.5512
-53.8177
-51.2473
-51.2556
-51.2723
-51.2972
-51.3302
-51.3713
-51.4203
-51.477
-51.5418
-51.6155
-51.7008
-51.8031
-51.9229
-51.99
-51.2741
-51.1036
-51.1114
-51.1271
-51.1504
-51.1814
-51.2198
-51.2652
-51.3173
-51.3755
-51.439
-51.5078
-51.585
-51.6905
-51.9728
-53.4725
-50.9545
-50.9619
-50.9766
-50.9986
-51.0276
-51.0635
-51.1056
-51.1534
-51.2053
-51.2589
-51.3098
-51.3471
-51.3351
-51.1106
-49.634
-50.8004
-50.8074
-50.8212
-50.8419
-50.8692
-50.9028
-50.9422
-50.9864
-51.0338
-51.081
-51.1217
-51.1434
-51.1274
-51.118
-51.8457
-50.6416
-50.6481
-50.6612
-50.6807
-50.7065
-50.7382
-50.7754
-50.8173
-50.8623
-50.9077
-50.9473
-50.9658
-50.915
-50.6138
-49.177
-50.4782
-50.4844
-50.4968
-50.5153
-50.5397
-50.5698
-50.6053
-50.6458
-50.6906
-50.7385
-50.7881
-50.8363
-50.8765
-50.8985
-50.8939
-50.3107
-50.3166
-50.3283
-50.3458
-50.369
-50.3977
-50.4319
-50.4714
-50.5165
-50.5683
-50.6302
-50.7125
-50.8504
-51.2019
-52.6067
-50.1391
-50.1447
-50.1558
-50.1725
-50.1945
-50.2219
-50.2547
-50.2931
-50.3378
-50.3912
-50.4585
-50.5501
-50.6758
-50.7741
-50.1004
-49.9637
-49.969
-49.9796
-49.9954
-50.0164
-50.0425
-50.0736
-50.1102
-50.153
-50.2045
-50.2703
-50.3639
-50.5204
-50.8825
-52.3192
-49.7846
-49.7897
-49.7998
-49.8148
-49.8347
-49.8595
-49.8889
-49.923
-49.9622
-50.0078
-50.063
-50.134
-50.2222
-50.2448
-49.3433
-49.6021
-49.6069
-49.6165
-49.6309
-49.6498
-49.6732
-49.7008
-49.7322
-49.767
-49.8046
-49.8452
-49.892
-49.9694
-50.2489
-51.9327
-49.4162
-49.4209
-49.4301
-49.4438
-49.4619
-49.4841
-49.51
-49.539
-49.5696
-49.5994
-49.6233
-49.6288
-49.5762
-49.2781
-47.5411
-49.2272
-49.2316
-49.2405
-49.2537
-49.2711
-49.2924
-49.3172
-49.3446
-49.3728
-49.3984
-49.4142
-49.406
-49.3533
-49.3065
-50.0928
-49.035
-49.0393
-49.0479
-49.0607
-49.0776
-49.0984
-49.1226
-49.1495
-49.1777
-49.2042
-49.2221
-49.214
-49.1264
-48.7565
-47.1095
-48.8398
-48.844
-48.8524
-48.8649
-48.8815
-48.9019
-48.926
-48.9535
-48.9838
-49.016
-49.0482
-49.077
-49.0955
-49.0933
-49.0635
-48.6417
-48.6459
-48.6541
-48.6663
-48.6826
-48.7028
-48.7271
-48.7555
-48.7886
-48.8278
-48.8768
-48.9471
-49.0789
-49.4495
-50.9968
-48.4408
-48.4448
-48.4528
-48.4649
-48.4809
-48.501
-48.5253
-48.5543
-48.5892
-48.6326
-48.6906
-48.7745
-48.8964
-48.9884
-48.2234
-48.237
-48.2409
-48.2488
-48.2607
-48.2764
-48.2962
-48.3202
-48.349
-48.3837
-48.4274
-48.4864
-48.5755
-48.7347
-49.1223
-50.7007
-48.0304
-48.0343
-48.042
-48.0537
-48.0691
-48.0885
-48.1118
-48.1395
-48.1721
-48.2115
-48.2611
-48.3278
-48.4143
-48.4295
-47.4243
-47.8211
-47.8249
-47.8325
-47.8439
-47.8591
-47.878
-47.9005
-47.9265
-47.9559
-47.9883
-48.0239
-48.0663
-48.1433
-48.4451
-50.3007
-47.609
-47.6128
-47.6203
-47.6315
-47.6464
-47.6649
-47.6866
-47.7112
-47.7374
-47.7629
-47.7819
-47.7807
-47.7162
-47.3817
-45.4581
-47.3943
-47.398
-47.4054
-47.4165
-47.4312
-47.4494
-47.4708
-47.4947
-47.5196
-47.5418
-47.5536
-47.5391
-47.4766
-47.4218
-48.2888
-47.1769
-47.1806
-47.1879
-47.1989
-47.2135
-47.2317
-47.2532
-47.2775
-47.3035
-47.3279
-47.3435
-47.3307
-47.2315
-46.8216
-45.0006
-46.9569
-46.9605
-46.9678
-46.9787
-46.9933
-47.0116
-47.0336
-47.0593
-47.0884
-47.1202
-47.1527
-47.1823
-47.2022
-47.2012
-47.171
-46.7342
-46.7378
-46.745
-46.7559
-46.7704
-46.7889
-46.8115
-46.8387
-46.8714
-46.9117
-46.9638
-47.0405
-47.1873
-47.6011
-49.3216
-46.5089
-46.5125
-46.5196
-46.5303
-46.5448
-46.5632
-46.5861
-46.6142
-46.6493
-46.6948
-46.7574
-46.8499
-46.9869
-47.0934
-46.2508
-46.2811
-46.2846
-46.2915
-46.302
-46.3162
-46.3344
-46.357
-46.3849
-46.42
-46.4659
-46.5298
-46.6285
-46.8076
-47.2447
-49.0139
-46.0507
-46.0541
-46.0608
-46.071
-46.0848
-46.1024
-46.1241
-46.1507
-46.1833
-46.2242
-46.2776
-46.3512
-46.4492
-46.4706
-45.3548
-45.8179
-45.8211
-45.8276
-45.8374
-45.8506
-45.8674
-45.8879
-45.9123
-45.9409
-45.9737
-46.011
-46.0569
-46.1439
-46.4859
-48.5751
-45.5827
-45.5857
-45.5919
-45.6013
-45.6139
-45.6297
-45.6489
-45.6711
-45.6956
-45.7198
-45.7378
-45.7341
-45.6614
-45.2878
-43.1313
-45.3451
-45.348
-45.3539
-45.3627
-45.3746
-45.3896
-45.4077
-45.4284
-45.4504
-45.4702
-45.479
-45.4593
-45.3877
-45.3276
-46.3087
-45.1054
-45.1081
-45.1136
-45.1219
-45.1331
-45.1473
-45.1646
-45.1848
-45.2068
-45.2278
-45.2395
-45.2204
-45.106
-44.644
-42.5928
-44.8636
-44.8661
-44.8712
-44.8788
-44.8893
-44.9028
-44.9195
-44.9399
-44.9641
-44.9916
-45.0208
-45.0476
-45.0658
-45.0636
-45.0315
-44.6199
-44.6222
-44.6267
-44.6337
-44.6432
-44.6558
-44.6719
-44.6925
-44.719
-44.7541
-44.8031
-44.8806
-45.0396
-45.5037
-47.4502
-44.3745
-44.3764
-44.3804
-44.3864
-44.3949
-44.4062
-44.4211
-44.4409
-44.468
-44.5066
-44.5647
-44.6572
-44.8016
-44.9141
-43.9551
-44.1275
-44.1291
-44.1323
-44.1373
-44.1444
-44.154
-44.1669
-44.1844
-44.2091
-44.2453
-44.3017
-44.3976
-44.5857
-45.0683
-47.0646
-43.8792
-43.8804
-43.8828
-43.8866
-43.892
-43.8994
-43.9094
-43.9231
-43.9421
-43.9696
-44.0105
-44.0738
-44.1653
-44.1708
-42.889
-43.6298
-43.6306
-43.6321
-43.6345
-43.638
-43.6428
-43.6493
-43.658
-43.6695
-43.6843
-43.7029
-43.7305
-43.8045
-44.1669
-46.5002
-43.3798
-43.38
-43.3806
-43.3815
-43.3828
-43.3848
-43.3876
-43.3911
-43.3946
-43.3959
-43.3883
-43.3549
-43.2435
-42.794
-40.3387
-43.1293
-43.129
-43.1285
-43.1278
-43.127
-43.1262
-43.1254
-43.1242
-43.1214
-43.1134
-43.0905
-43.0334
-42.9173
-42.8135
-43.8712
-42.8787
-42.8779
-42.8763
-42.874
-42.871
-42.8674
-42.8633
-42.8585
-42.852
-42.8407
-42.8156
-42.7529
-42.5824
-42.0261
-39.7107
-42.6284
-42.6271
-42.6244
-42.6203
-42.6151
-42.6088
-42.6017
-42.594
-42.586
-42.5773
-42.5658
-42.5471
-42.5154
-42.4597
-42.3762
-42.3789
-42.3769
-42.3731
-42.3673
-42.3597
-42.3506
-42.3403
-42.3298
-42.3206
-42.3155
-42.3201
-42.3502
-42.4651
-42.9121
-44.9871
-42.1304
-42.1279
-42.1228
-42.1152
-42.1052
-42.0929
-42.0791
-42.0649
-42.0525
-42.0466
-42.0554
-42.0946
-42.184
-42.2335
-41.1184
-41.8834
-41.8803
-41.874
-41.8645
-41.8519
-41.8362
-41.8181
-41.7986
-41.7801
-41.7671
-41.7684
-41.804
-41.9306
-42.3632
-44.403
-41.6383
-41.6346
-41.6271
-41.6157
-41.6004
-41.581
-41.558
-41.5318
-41.504
-41.4772
-41.4564
-41.4503
-41.4645
-41.3763
-39.9179
-41.3955
-41.3912
-41.3825
-41.3693
-41.3513
-41.3283
-41.3
-41.2663
-41.2272
-41.1828
-41.133
-41.0825
-41.0696
-41.3404
-43.6136
-41.1554
-41.1506
-41.1409
-41.126
-41.1055
-41.0789
-41.0456
-41.0046
-40.9543
-40.8916
-40.8089
-40.6884
-40.4778
-39.9134
-37.3095
-40.9183
-40.9131
-40.9025
-40.8862
-40.8636
-40.8341
-40.7965
-40.7494
-40.6903
-40.6139
-40.5096
-40.3569
-40.1315
-39.9022
-40.7832
-40.6845
-40.679
-40.6678
-40.6504
-40.6263
-40.5946
-40.554
-40.5028
-40.4382
-40.3552
-40.2427
-40.0758
-39.7879
-39.1193
-36.7825
-40.4542
-40.4485
-40.437
-40.419
-40.394
-40.361
-40.3187
-40.2655
-40.1992
-40.1166
-40.0123
-39.8787
-39.7087
-39.4943
-39.2533
-40.2275
-40.2218
-40.2102
-40.1922
-40.167
-40.1337
-40.0909
-40.0373
-39.9715
-39.8925
-39.801
-39.7067
-39.6605
-39.8871
-41.5609
-40.0045
-39.9989
-39.9876
-39.97
-39.9454
-39.9126
-39.8706
-39.8178
-39.7533
-39.6767
-39.5902
-39.5013
-39.4227
-39.2743
-38.0949
-39.7849
-39.7797
-39.769
-39.7524
-39.729
-39.6978
-39.6575
-39.6066
-39.5435
-39.4674
-39.3796
-39.2887
-39.2333
-39.377
-40.7543
-39.5687
-39.5639
-39.5542
-39.5391
-39.5177
-39.4892
-39.4519
-39.4039
-39.3428
-39.2658
-39.1696
-39.0517
-38.9055
-38.6222
-37.2266
-39.3554
-39.3513
-39.3428
-39.3297
-39.3112
-39.2863
-39.2535
-39.2104
-39.1534
-39.0771
-38.9733
-38.8342
-38.673
-38.6393
-39.882
-39.1447
-39.1413
-39.1343
-39.1237
-39.1087
-39.0887
-39.0622
-39.0267
-38.9776
-38.9069
-38.8001
-38.6319
-38.352
-37.7693
-35.7861
-38.936
-38.9333
-38.9281
-38.9202
-38.9095
-38.8955
-38.8772
-38.8525
-38.8169
-38.7612
-38.668
-38.5073
-38.2412
-37.8712
-37.9361
-38.7287
-38.7269
-38.7234
-38.7183
-38.7121
-38.7049
-38.6966
-38.6861
-38.6703
-38.6412
-38.5812
-38.4559
-38.2026
-37.6703
-36.2974
-38.5224
-38.5213
-38.5193
-38.5169
-38.5151
-38.5148
-38.5173
-38.5235
-38.5331
-38.5421
-38.5382
-38.4933
-38.3579
-38.0524
-37.5482
-38.3165
-38.3159
-38.3151
-38.3148
-38.3167
-38.3226
-38.3354
-38.3587
-38.3964
-38.4515
-38.522
-38.5936
-38.6313
-38.5719
-38.4534
-38.1108
-38.1103
-38.11
-38.111
-38.1151
-38.1254
-38.1462
-38.1839
-38.2478
-38.3498
-38.5035
-38.7175
-38.972
-39.1316
-38.8221
-37.9049
-37.9043
-37.9037
-37.9045
-37.9089
-37.9205
-37.9451
-37.9912
-38.0728
-38.2116
-38.4415
-38.8131
-39.3788
-40.0165
-39.4393
-37.6992
-37.698
-37.6962
-37.6952
-37.6973
-37.7065
-37.7288
-37.774
-37.8583
-38.0096
-38.2795
-38.7739
-39.7358
-41.7443
-46.1889
-37.4939
-37.4916
-37.4876
-37.4832
-37.4806
-37.4832
-37.4966
-37.5298
-37.5973
-37.7247
-37.9601
-38.4102
-39.3659
-41.7797
-49.501
-51.2285
-43.2728
-40.7544
-39.7431
-39.2564
-38.9944
-38.846
-38.7614
-38.7144
-38.6898
-38.6783
-38.6741
-38.6735
-38.6742
-38.6749
-48.1949
-43.2618
-41.1109
-40.0856
-39.5521
-39.2544
-39.0817
-38.9804
-38.9216
-38.8884
-38.8707
-38.862
-38.8582
-38.857
-38.8567
-40.4242
-41.318
-40.6859
-40.0865
-39.6827
-39.427
-39.2678
-39.1699
-39.1108
-39.0761
-39.0565
-39.046
-39.0409
-39.0386
-39.0378
-40.2047
-40.4331
-40.2385
-39.9516
-39.7089
-39.532
-39.4114
-39.3327
-39.2831
-39.253
-39.2356
-39.226
-39.2212
-39.2189
-39.2181
-39.8311
-39.841
-39.8555
-39.7858
-39.6882
-39.5973
-39.5259
-39.4752
-39.4418
-39.421
-39.4089
-39.4024
-39.3992
-39.3979
-39.3975
-38.6296
-39.2451
-39.5311
-39.6392
-39.6615
-39.6484
-39.6261
-39.606
-39.5916
-39.5827
-39.578
-39.5761
-39.5757
-39.576
-39.5762
-37.8308
-38.8772
-39.3306
-39.5518
-39.6582
-39.7053
-39.7247
-39.733
-39.7375
-39.7412
-39.7448
-39.7483
-39.7513
-39.7536
-39.7548
-38.7791
-38.9203
-39.2915
-39.5442
-39.6945
-39.7808
-39.8313
-39.8627
-39.884
-39.8995
-39.9114
-39.9205
-39.9272
-39.9316
-39.9339
-37.1645
-38.8028
-39.335
-39.6073
-39.7741
-39.8807
-39.951
-39.9995