/*--------------------------------*- C++ -*----------------------------------*\
| =========                 |                                                 |
| \\      /  F ield         | OpenFOAM: The Open Source CFD Toolbox           |
|  \\    /   O peration     | Version:  5.x                                   |
|   \\  /    A nd           | Web:      www.OpenFOAM.org                      |
|    \\/     M anipulation  |                                                 |
\*---------------------------------------------------------------------------*/
FoamFile
{
    version     2.0;
    format      ascii;
    class       volScalarField;
    location    "0.3";
    object      gradTy;
}
// * * * * * * * * * * * * * * * * * * * * * * * * * * * * * * * * * * * * * //

dimensions      [0 -1 0 1 0 0 0];

internalField   nonuniform List<scalar> 
2048
(
-28.1463
-28.1269
-28.089
-28.0344
-27.9654
-27.885
-27.7961
-27.7015
-27.6041
-27.5062
-27.4099
-27.3167
-27.228
-27.1445
-27.0669
-26.9954
-26.9302
-26.8712
-26.8182
-26.771
-26.7292
-26.6925
-26.6607
-26.6333
-26.6102
-26.5909
-26.5754
-26.5634
-26.5548
-26.5495
-26.5474
-26.5485
-26.5529
-26.5606
-26.5719
-26.5868
-26.6057
-26.629
-26.6568
-26.6898
-26.7283
-26.7729
-26.8242
-26.8826
-26.9487
-27.0232
-27.1065
-27.1989
-27.3008
-27.4122
-27.5328
-27.6621
-27.7991
-27.9423
-28.0898
-28.239
-28.3867
-28.5292
-28.6627
-28.7827
-28.885
-28.9658
-29.0216
-29.0501
-28.1597
-28.1395
-28.1002
-28.0436
-27.9724
-27.8895
-27.7981
-27.7013
-27.6019
-27.5024
-27.4047
-27.3105
-27.221
-27.137
-27.0591
-26.9875
-26.9223
-26.8634
-26.8106
-26.7636
-26.722
-26.6856
-26.654
-26.6269
-26.6039
-26.5848
-26.5695
-26.5576
-26.549
-26.5438
-26.5416
-26.5427
-26.547
-26.5546
-26.5657
-26.5805
-26.5992
-26.6221
-26.6496
-26.6822
-26.7204
-26.7645
-26.8153
-26.8733
-26.9391
-27.0132
-27.0962
-27.1885
-27.2904
-27.402
-27.5231
-27.6532
-27.7915
-27.9364
-28.086
-28.2377
-28.3884
-28.5343
-28.6713
-28.7948
-28.9003
-28.9837
-29.0415
-29.0711
-28.1857
-28.1639
-28.1218
-28.0614
-27.9856
-27.898
-27.802
-27.7009
-27.5977
-27.4949
-27.3947
-27.2985
-27.2076
-27.1227
-27.0443
-26.9725
-26.9073
-26.8487
-26.7962
-26.7496
-26.7085
-26.6725
-26.6414
-26.6146
-26.592
-26.5733
-26.5582
-26.5465
-26.5381
-26.5329
-26.5308
-26.5318
-26.536
-26.5434
-26.5541
-26.5685
-26.5867
-26.6091
-26.636
-26.6679
-26.7053
-26.7487
-26.7986
-26.8558
-26.9208
-26.9942
-27.0766
-27.1686
-27.2705
-27.3824
-27.5045
-27.6362
-27.7767
-27.9248
-28.0784
-28.2351
-28.3915
-28.5438
-28.6875
-28.8178
-28.9296
-29.0183
-29.0799
-29.1115
-28.2235
-28.1995
-28.1531
-28.0869
-28.0045
-27.9099
-27.8071
-27.6997
-27.5911
-27.4839
-27.38
-27.2812
-27.1883
-27.1022
-27.0231
-26.9511
-26.8861
-26.8277
-26.7758
-26.7298
-26.6894
-26.6541
-26.6236
-26.5975
-26.5754
-26.5571
-26.5424
-26.531
-26.5228
-26.5177
-26.5156
-26.5165
-26.5204
-26.5275
-26.5379
-26.5517
-26.5693
-26.5909
-26.6169
-26.6478
-26.6841
-26.7263
-26.7751
-26.8311
-26.8949
-26.9673
-27.0489
-27.1403
-27.242
-27.3544
-27.4777
-27.6115
-27.7552
-27.9076
-28.067
-28.2306
-28.3953
-28.5569
-28.7105
-28.8506
-28.9717
-29.0682
-29.1355
-29.1701
-28.273
-28.246
-28.1938
-28.1198
-28.0285
-27.9246
-27.8129
-27.6975
-27.582
-27.4691
-27.3609
-27.2587
-27.1636
-27.076
-26.9961
-26.924
-26.8592
-26.8014
-26.7502
-26.7051
-26.6656
-26.6311
-26.6014
-26.576
-26.5546
-26.5369
-26.5227
-26.5117
-26.5037
-26.4987
-26.4966
-26.4974
-26.5011
-26.5078
-26.5177
-26.5308
-26.5476
-26.5682
-26.5931
-26.6228
-26.6577
-26.6984
-26.7457
-26.8001
-26.8624
-26.9334
-27.0138
-27.1044
-27.2059
-27.3187
-27.4433
-27.5796
-27.7271
-27.8849
-28.0514
-28.2239
-28.3991
-28.5727
-28.7392
-28.8924
-29.0258
-29.1328
-29.2077
-29.2463
-28.3344
-28.3034
-28.2437
-28.1597
-28.057
-27.9416
-27.8189
-27.6938
-27.57
-27.4505
-27.3371
-27.2312
-27.1336
-27.0444
-26.9639
-26.8917
-26.8274
-26.7704
-26.7202
-26.6761
-26.6376
-26.6042
-26.5755
-26.551
-26.5304
-26.5134
-26.4997
-26.4891
-26.4815
-26.4767
-26.4746
-26.4752
-26.4787
-26.4849
-26.4941
-26.5065
-26.5223
-26.5418
-26.5654
-26.5936
-26.6268
-26.6658
-26.7112
-26.7638
-26.8243
-26.8935
-26.9724
-27.0618
-27.1627
-27.2758
-27.4017
-27.5406
-27.6925
-27.8565
-28.0312
-28.2142
-28.4021
-28.5902
-28.7727
-28.9423
-29.0912
-29.2115
-29.2962
-29.34
-28.4081
-28.3719
-28.3027
-28.2062
-28.0895
-27.96
-27.8243
-27.6879
-27.5547
-27.4278
-27.3088
-27.1989
-27.0986
-27.008
-26.9269
-26.8548
-26.7912
-26.7352
-26.6862
-26.6434
-26.6062
-26.5741
-26.5465
-26.523
-26.5033
-26.4871
-26.4741
-26.464
-26.4567
-26.452
-26.45
-26.4505
-26.4536
-26.4594
-26.4679
-26.4794
-26.4941
-26.5123
-26.5344
-26.5609
-26.5923
-26.6292
-26.6725
-26.7229
-26.7812
-26.8483
-26.9253
-27.0132
-27.1132
-27.2262
-27.3532
-27.4949
-27.6512
-27.822
-28.0058
-28.2007
-28.4033
-28.6086
-28.8101
-28.9995
-29.1674
-29.3043
-29.4011
-29.4513
-28.4947
-28.452
-28.371
-28.2591
-28.1255
-27.9793
-27.8285
-27.6792
-27.5357
-27.4006
-27.2757
-27.1617
-27.0588
-26.9668
-26.8854
-26.8138
-26.7511
-26.6964
-26.6489
-26.6076
-26.5719
-26.5412
-26.5149
-26.4926
-26.4739
-26.4585
-26.4462
-26.4367
-26.4298
-26.4253
-26.4233
-26.4237
-26.4264
-26.4317
-26.4395
-26.4501
-26.4636
-26.4804
-26.5008
-26.5254
-26.5547
-26.5894
-26.6303
-26.6781
-26.7339
-26.7985
-26.8732
-26.9592
-27.0577
-27.1703
-27.2982
-27.4424
-27.6033
-27.7811
-27.9749
-28.1828
-28.4017
-28.6266
-28.8504
-29.0633
-29.2542
-29.411
-29.5227
-29.5809
-28.5952
-28.5445
-28.4488
-28.3181
-28.1643
-27.9986
-27.8306
-27.667
-27.5123
-27.3689
-27.2379
-27.1198
-27.0144
-26.9213
-26.8399
-26.769
-26.7076
-26.6546
-26.6088
-26.5693
-26.5353
-26.5061
-26.4812
-26.4601
-26.4426
-26.4282
-26.4166
-26.4077
-26.4012
-26.397
-26.395
-26.3952
-26.3976
-26.4023
-26.4094
-26.4189
-26.4312
-26.4464
-26.4651
-26.4876
-26.5146
-26.5468
-26.5851
-26.6302
-26.6831
-26.7449
-26.8168
-26.9003
-26.997
-27.1087
-27.2369
-27.3833
-27.5487
-27.7336
-27.9377
-28.1595
-28.3963
-28.6433
-28.8925
-29.1329
-29.3511
-29.5319
-29.6615
-29.7293
-28.7107
-28.65
-28.5363
-28.3829
-28.205
-28.0169
-27.8296
-27.6506
-27.4842
-27.3322
-27.1952
-27.0732
-26.9656
-26.8717
-26.7906
-26.7209
-26.6613
-26.6102
-26.5665
-26.529
-26.4968
-26.4692
-26.4458
-26.4261
-26.4098
-26.3964
-26.3857
-26.3774
-26.3713
-26.3674
-26.3655
-26.3655
-26.3676
-26.3717
-26.378
-26.3865
-26.3974
-26.4111
-26.4278
-26.4481
-26.4727
-26.5022
-26.5376
-26.5796
-26.6294
-26.688
-26.7568
-26.8373
-26.9315
-27.0416
-27.1697
-27.3178
-27.4873
-27.6792
-27.8937
-28.13
-28.386
-28.6572
-28.9352
-29.2076
-29.4577
-29.6672
-29.8184
-29.8976
-28.8426
-28.7695
-28.6336
-28.4528
-28.2468
-28.0331
-27.8246
-27.6292
-27.4509
-27.2905
-27.1478
-27.0221
-26.9127
-26.8184
-26.738
-26.6699
-26.6124
-26.5637
-26.5224
-26.4871
-26.4568
-26.4311
-26.4093
-26.391
-26.3759
-26.3636
-26.3538
-26.3462
-26.3406
-26.3369
-26.335
-26.335
-26.3367
-26.3402
-26.3457
-26.3532
-26.3627
-26.3747
-26.3894
-26.4074
-26.4293
-26.456
-26.4882
-26.5271
-26.5735
-26.6285
-26.6937
-26.7706
-26.8617
-26.9695
-27.0968
-27.246
-27.4192
-27.6178
-27.8425
-28.0935
-28.3696
-28.667
-28.9773
-29.2862
-29.5739
-29.8173
-29.994
-30.087
-28.9925
-28.9041
-28.7411
-28.5274
-28.2885
-28.0459
-27.8144
-27.6021
-27.4119
-27.2436
-27.0956
-26.9667
-26.8558
-26.7615
-26.6824
-26.6164
-26.5615
-26.5156
-26.4769
-26.444
-26.4159
-26.392
-26.3718
-26.3551
-26.3413
-26.3301
-26.3213
-26.3144
-26.3093
-26.3059
-26.304
-26.3038
-26.3052
-26.3082
-26.3129
-26.3192
-26.3275
-26.3377
-26.3503
-26.3659
-26.385
-26.4086
-26.4376
-26.473
-26.5158
-26.567
-26.6281
-26.7009
-26.7881
-26.8929
-27.0185
-27.1682
-27.3444
-27.5492
-27.7837
-28.0491
-28.3457
-28.6712
-29.0172
-29.3678
-29.6991
-29.9825
-30.1895
-30.2987
-29.1625
-29.055
-28.8588
-28.6058
-28.3288
-28.054
-27.798
-27.5685
-27.3671
-27.1915
-27.0388
-26.9072
-26.7952
-26.7015
-26.6241
-26.5607
-26.509
-26.4663
-26.4305
-26.4002
-26.3744
-26.3524
-26.3339
-26.3186
-26.3062
-26.2963
-26.2884
-26.2822
-26.2776
-26.2745
-26.2727
-26.2724
-26.2734
-26.2759
-26.2798
-26.2851
-26.2919
-26.3004
-26.3109
-26.3239
-26.3401
-26.3605
-26.3861
-26.4179
-26.4569
-26.5041
-26.5607
-26.6288
-26.7113
-26.8121
-26.9353
-27.0846
-27.2632
-27.4734
-27.7171
-27.9962
-28.3133
-28.668
-29.0533
-29.4511
-29.833
-30.1634
-30.406
-30.5341
-29.3547
-29.2238
-28.9869
-28.6868
-28.366
-28.0558
-27.774
-27.5277
-27.3161
-27.1343
-26.9777
-26.8438
-26.7313
-26.6385
-26.5634
-26.5033
-26.4552
-26.4162
-26.3836
-26.3561
-26.3325
-26.3124
-26.2956
-26.2819
-26.271
-26.2623
-26.2554
-26.25
-26.2459
-26.2431
-26.2413
-26.2408
-26.2415
-26.2435
-26.2466
-26.2509
-26.2564
-26.2632
-26.2714
-26.2817
-26.2949
-26.312
-26.3341
-26.3622
-26.3973
-26.4402
-26.4921
-26.5547
-26.6317
-26.7276
-26.8474
-26.9955
-27.1757
-27.3907
-27.6426
-27.9342
-28.2709
-28.6558
-29.0836
-29.5347
-29.9751
-30.3605
-30.6449
-30.7948
-29.5717
-29.4119
-29.1251
-28.769
-28.3984
-28.0496
-27.7412
-27.4791
-27.2589
-27.0724
-26.9127
-26.7769
-26.6642
-26.5729
-26.5006
-26.4444
-26.4006
-26.3656
-26.3366
-26.3119
-26.2907
-26.2725
-26.2573
-26.2452
-26.2357
-26.2283
-26.2225
-26.2179
-26.2143
-26.2117
-26.2101
-26.2094
-26.2098
-26.2112
-26.2137
-26.2171
-26.2212
-26.2262
-26.2322
-26.2398
-26.2498
-26.2634
-26.2819
-26.3062
-26.3373
-26.376
-26.4227
-26.4794
-26.5498
-26.6398
-26.7552
-26.9013
-27.0822
-27.3014
-27.5603
-27.8626
-28.2172
-28.6324
-29.1061
-29.6169
-30.1246
-30.5747
-30.9075
-31.0823
-29.8164
-29.6211
-29.2733
-28.8505
-28.4237
-28.0335
-27.6984
-27.4221
-27.1957
-27.0063
-26.8441
-26.7067
-26.5943
-26.505
-26.436
-26.3843
-26.3455
-26.3151
-26.2898
-26.2681
-26.2492
-26.2327
-26.2191
-26.2085
-26.2007
-26.1947
-26.1899
-26.1861
-26.183
-26.1807
-26.1791
-26.1783
-26.1783
-26.1793
-26.1811
-26.1836
-26.1865
-26.1897
-26.1935
-26.1982
-26.2049
-26.2149
-26.2297
-26.2502
-26.2774
-26.3118
-26.3533
-26.4032
-26.4661
-26.549
-26.6591
-26.8021
-26.9831
-27.2059
-27.4707
-27.7812
-28.1511
-28.5957
-29.1184
-29.6958
-30.2807
-30.8067
-31.1954
-31.398
-30.0922
-29.8536
-29.4308
-28.9289
-28.4396
-28.0058
-27.6442
-27.3562
-27.1265
-26.9364
-26.7725
-26.6335
-26.5217
-26.4348
-26.3698
-26.3233
-26.2902
-26.2649
-26.2435
-26.2247
-26.2081
-26.1933
-26.1811
-26.1722
-26.1659
-26.1614
-26.1578
-26.1547
-26.1522
-26.1501
-26.1485
-26.1475
-26.1473
-26.1478
-26.1491
-26.1507
-26.1523
-26.154
-26.1555
-26.1573
-26.1604
-26.1667
-26.1777
-26.1945
-26.2177
-26.2481
-26.2843
-26.3268
-26.3811
-26.4556
-26.5594
-26.6985
-26.8786
-27.1049
-27.3745
-27.6899
-28.0712
-28.5433
-29.1179
-29.7693
-30.4422
-31.0578
-31.5105
-31.7433
-30.4026
-30.1119
-29.5967
-29.0009
-28.4435
-27.9646
-27.5773
-27.2812
-27.052
-26.8639
-26.6984
-26.5575
-26.4468
-26.3628
-26.302
-26.2617
-26.235
-26.2154
-26.198
-26.1822
-26.1678
-26.1544
-26.1434
-26.1361
-26.1316
-26.1287
-26.1262
-26.1238
-26.1218
-26.1199
-26.1183
-26.1172
-26.1166
-26.1168
-26.1176
-26.1185
-26.119
-26.119
-26.1184
-26.1171
-26.1166
-26.1189
-26.1262
-26.1391
-26.1585
-26.1853
-26.2164
-26.2507
-26.295
-26.3598
-26.4564
-26.5905
-26.769
-26.9991
-27.2729
-27.589
-27.9765
-28.4725
-29.1019
-29.835
-30.6077
-31.3298
-31.8548
-32.1192
-30.7515
-30.3988
-29.7697
-29.0625
-28.4327
-27.9081
-27.4964
-27.1968
-26.9728
-26.7898
-26.6226
-26.4787
-26.3697
-26.289
-26.2329
-26.1997
-26.1803
-26.167
-26.1536
-26.1405
-26.1283
-26.116
-26.106
-26.1003
-26.0978
-26.0966
-26.0952
-26.0936
-26.092
-26.0903
-26.0886
-26.0873
-26.0865
-26.0863
-26.0867
-26.087
-26.0864
-26.085
-26.0822
-26.0778
-26.0734
-26.0716
-26.0752
-26.0844
-26.0999
-26.1237
-26.1502
-26.1755
-26.2084
-26.2618
-26.3504
-26.4787
-26.6543
-26.8894
-27.1676
-27.479
-27.8658
-28.3803
-29.0675
-29.8904
-30.7747
-31.625
-32.2307
-32.526
-31.1431
-30.7184
-29.9478
-29.1083
-28.4047
-27.8351
-27.4002
-27.1032
-26.8896
-26.7158
-26.5457
-26.397
-26.2907
-26.2138
-26.1625
-26.1374
-26.1264
-26.1201
-26.1104
-26.0998
-26.0899
-26.0783
-26.0688
-26.065
-26.0646
-26.0653
-26.0649
-26.0639
-26.0629
-26.0613
-26.0595
-26.058
-26.0569
-26.0563
-26.0565
-26.0564
-26.0547
-26.052
-26.0473
-26.0395
-26.031
-26.0248
-26.0248
-26.0302
-26.0419
-26.0637
-26.0864
-26.1016
-26.1215
-26.1616
-26.242
-26.3634
-26.5341
-26.7768
-27.0607
-27.3609
-27.7384
-28.2633
-29.0118
-29.9329
-30.9398
-31.9473
-32.6411
-32.9635
-31.5814
-31.0757
-30.1284
-29.1315
-28.3574
-27.7445
-27.2868
-27.0006
-26.8037
-26.6439
-26.4684
-26.3119
-26.2101
-26.1375
-26.0905
-26.0751
-26.0734
-26.0751
-26.0685
-26.0601
-26.0529
-26.0413
-26.0317
-26.03
-26.032
-26.0349
-26.0353
-26.0349
-26.0344
-26.0329
-26.031
-26.0293
-26.0278
-26.0268
-26.027
-26.0267
-26.0239
-26.02
-26.0137
-26.0023
-25.9895
-25.9785
-25.9752
-25.9769
-25.9842
-26.0056
-26.0258
-26.0296
-26.0348
-26.0591
-26.1314
-26.2451
-26.4079
-26.6624
-26.9555
-27.2359
-27.5939
-28.1173
-28.9322
-29.9603
-31.0975
-32.3025
-33.0893
-33.4305
-32.0702
-31.478
-30.3078
-29.1227
-28.2896
-27.6361
-27.1545
-26.8897
-26.7158
-26.5768
-26.3913
-26.2225
-26.1285
-26.0604
-26.0168
-26.013
-26.0218
-26.0326
-26.0283
-26.0214
-26.0174
-26.005
-25.9946
-25.9954
-26.0002
-26.0055
-26.0066
-26.0065
-26.0068
-26.0052
-26.0031
-26.0011
-25.9993
-25.9979
-25.9983
-25.9981
-25.994
-25.9893
-25.9817
-25.9664
-25.9489
-25.9326
-25.9265
-25.9245
-25.9265
-25.9495
-25.9696
-25.96
-25.9487
-25.9539
-26.0195
-26.1246
-26.274
-26.5471
-26.8561
-27.105
-27.4324
-27.9373
-28.8263
-29.9712
-31.2388
-32.6994
-33.5791
-33.924
-32.6122
-31.9352
-30.4811
-29.07
-28.2018
-27.5104
-27.0002
-26.7717
-26.627
-26.518
-26.315
-26.1271
-26.0468
-25.983
-25.9409
-25.9516
-25.9717
-25.9934
-25.9896
-25.9836
-25.9841
-25.9695
-25.9572
-25.9614
-25.9692
-25.9774
-25.9788
-25.9789
-25.98
-25.9782
-25.9758
-25.9737
-25.9715
-25.9696
-25.9705
-25.9707
-25.9649
-25.9597
-25.9515
-25.9318
-25.9095
-25.8869
-25.8788
-25.8733
-25.8683
-25.8958
-25.9191
-25.8932
-25.8637
-25.8453
-25.907
-26.0033
-26.13
-26.4319
-26.7682
-26.9697
-27.2552
-27.7164
-28.6925
-29.9659
-31.3498
-33.1518
-34.1148
-34.4395
-33.2085
-32.4616
-30.6419
-28.9572
-28.0971
-27.3689
-26.82
-26.6488
-26.5377
-26.4723
-26.2399
-26.0233
-25.9662
-25.9061
-25.8618
-25.8914
-25.9232
-25.9584
-25.9524
-25.9463
-25.9536
-25.9349
-25.9191
-25.928
-25.939
-25.951
-25.9519
-25.9519
-25.9544
-25.9521
-25.9494
-25.9471
-25.9445
-25.9417
-25.9435
-25.9447
-25.9367
-25.9313
-25.9236
-25.8986
-25.8714
-25.8411
-25.8325
-25.824
-25.8084
-25.8446
-25.876
-25.8293
-25.7808
-25.7318
-25.795
-25.8833
-25.9718
-26.3174
-26.6991
-26.8302
-27.0652
-27.4458
-28.53
-29.9477
-31.4081
-33.6807
-34.7005
-34.9701
-33.8575
-33.0777
-30.7814
-28.7627
-27.9826
-27.2144
-26.6078
-26.5247
-26.4472
-26.4457
-26.1662
-25.9069
-25.8892
-25.8306
-25.7782
-25.8333
-25.8761
-25.929
-25.9166
-25.9089
-25.9268
-25.9012
-25.8798
-25.8955
-25.9098
-25.9265
-25.9259
-25.9256
-25.9301
-25.9269
-25.9236
-25.9214
-25.9184
-25.9142
-25.9174
-25.9205
-25.9091
-25.9041
-25.8983
-25.8668
-25.8349
-25.7946
-25.7879
-25.7772
-25.7454
-25.7958
-25.8427
-25.7681
-25.7012
-25.6112
-25.6849
-25.7682
-25.7933
-26.2039
-26.6589
-26.6857
-26.8676
-27.1128
-28.3393
-29.9255
-31.3789
-34.3177
-35.3398
-35.5061
-34.5535
-33.8126
-30.8882
-28.4578
-27.8715
-27.0508
-26.3544
-26.4051
-26.3532
-26.4466
-26.0936
-25.7723
-25.8191
-25.7576
-25.6876
-25.7785
-25.8299
-25.9069
-25.8816
-25.8704
-25.9051
-25.8683
-25.8383
-25.8644
-25.8813
-25.9045
-25.9008
-25.8996
-25.9072
-25.9025
-25.8987
-25.8966
-25.8932
-25.8869
-25.8922
-25.8985
-25.8818
-25.8779
-25.8764
-25.8362
-25.8006
-25.7467
-25.7454
-25.7342
-25.677
-25.7491
-25.8222
-25.7086
-25.627
-25.4798
-25.5784
-25.6634
-25.5854
-26.0909
-26.6613
-26.5324
-26.6722
-26.6999
-28.1219
-29.9165
-31.209
-35.1106
-36.0337
-36.035
-35.2847
-34.7072
-30.9468
-28.0043
-27.7852
-26.8831
-26.0462
-26.2992
-26.2504
-26.4865
-26.0211
-25.611
-25.7613
-25.6881
-25.5865
-25.7294
-25.7831
-25.8944
-25.8467
-25.8293
-25.8903
-25.836
-25.7934
-25.835
-25.8532
-25.8856
-25.8763
-25.8738
-25.8862
-25.8788
-25.8744
-25.8726
-25.8692
-25.8595
-25.8677
-25.8792
-25.8544
-25.8523
-25.8585
-25.8062
-25.7691
-25.6961
-25.7053
-25.6967
-25.5999
-25.7042
-25.8187
-25.6487
-25.5614
-25.3324
-25.4775
-25.577
-25.3352
-25.9769
-26.7247
-26.3622
-26.4947
-26.1825
-27.881
-29.9512
-30.8183
-36.1299
-36.7788
-36.5413
-36.031
-35.8183
-30.9373
-27.3519
-27.7567
-26.717
-25.6639
-26.2218
-26.1291
-26.5806
-25.947
-25.4115
-25.7234
-25.6236
-25.47
-25.6892
-25.7335
-25.8949
-25.8105
-25.7835
-25.885
-25.8039
-25.7434
-25.8085
-25.8249
-25.8704
-25.852
-25.8475
-25.8673
-25.8556
-25.8506
-25.8496
-25.8463
-25.8316
-25.8437
-25.8633
-25.8259
-25.8269
-25.8457
-25.7759
-25.7415
-25.6406
-25.668
-25.6677
-25.5098
-25.6601
-25.8379
-25.5844
-25.5097
-25.161
-25.3843
-25.5214
-25.0247
-25.8591
-26.874
-26.1596
-26.3598
-25.526
-27.6203
-30.0799
-30.0889
-37.4781
-37.5633
-37.0067
-36.761
-37.2234
-30.833
-26.4351
-27.8345
-26.5589
-25.1797
-26.1948
-25.973
-26.7498
-25.8687
-25.1581
-25.717
-25.5655
-25.3307
-25.663
-25.6772
-25.913
-25.7713
-25.7298
-25.8929
-25.7711
-25.6859
-25.7863
-25.7952
-25.8602
-25.8272
-25.8202
-25.8512
-25.8325
-25.8271
-25.8272
-25.8248
-25.8024
-25.8198
-25.8519
-25.7955
-25.8008
-25.8396
-25.744
-25.7195
-25.5778
-25.6339
-25.6509
-25.4005
-25.6155
-25.8874
-25.5096
-25.4799
-24.9548
-25.3011
-25.514
-24.6297
-25.7328
-27.1431
-25.8987
-26.3059
-24.683
-27.3436
-30.3816
-28.851
-39.3026
-38.3614
-37.4109
-37.4291
-39.027
-30.5995
-25.1689
-28.0874
-26.4142
-24.5557
-26.2513
-25.7567
-27.0224
-25.782
-24.8303
-25.758
-25.5151
-25.1591
-25.6589
-25.6081
-25.9552
-25.7267
-25.6643
-25.9192
-25.737
-25.6181
-25.7707
-25.7627
-25.8565
-25.8014
-25.7911
-25.8386
-25.809
-25.8038
-25.8056
-25.8052
-25.7714
-25.7954
-25.8464
-25.7618
-25.7733
-25.8423
-25.7083
-25.7059
-25.504
-25.6036
-25.6524
-25.2644
-25.5687
-25.9779
-25.4143
-25.484
-24.6987
-25.23
-25.5801
-24.1183
-25.5912
-27.5783
-25.5385
-26.3895
-23.589
-27.0533
-30.9751
-26.8645
-41.8106
-39.1266
-37.7338
-37.971
-41.3669
-30.1925
-23.4456
-28.6101
-26.2873
-23.7408
-26.4392
-25.4423
-27.4369
-25.6815
-24.4014
-25.8688
-25.4739
-24.9425
-25.6886
-25.5176
-26.0308
-25.6738
-25.5822
-25.9711
-25.7004
-25.5365
-25.7656
-25.7254
-25.8622
-25.774
-25.7597
-25.8313
-25.7851
-25.7811
-25.785
-25.7884
-25.7382
-25.7705
-25.8495
-25.7237
-25.7433
-25.8573
-25.6661
-25.7051
-25.4149
-25.5776
-25.6806
-25.0916
-25.5175
-26.1242
-25.2845
-25.5403
-24.3731
-25.1731
-25.7541
-23.449
-25.4243
-28.2414
-25.0173
-26.6926
-22.1585
-26.7476
-32.0338
-23.7975
-45.2897
-39.7809
-37.9573
-38.2999
-44.4222
-29.555
-21.1286
-29.5293
-26.1785
-22.6672
-26.8257
-24.9741
-28.0435
-25.5586
-23.8369
-26.0791
-25.4421
-24.6635
-25.7683
-25.3927
-26.1519
-25.6083
-25.4766
-26.0577
-25.6594
-25.4363
-25.7757
-25.6796
-25.8801
-25.7435
-25.7247
-25.8308
-25.7597
-25.7589
-25.7653
-25.7753
-25.7017
-25.744
-25.8638
-25.679
-25.7093
-25.8887
-25.6128
-25.7226
-25.3042
-25.556
-25.7461
-24.8694
-25.4583
-26.3451
-25.099
-25.6736
-23.9512
-25.131
-26.0822
-22.5687
-25.2175
-29.2143
-24.2447
-27.3299
-20.2783
-26.4162
-33.8031
-19.1984
-50.1307
-40.202
-38.0684
)
;

boundaryField
{
    left
    {
        type            calculated;
        value           nonuniform List<scalar> 
32
(
-28.1463
-28.1597
-28.1857
-28.2235
-28.273
-28.3344
-28.4081
-28.4947
-28.5952
-28.7107
-28.8426
-28.9925
-29.1625
-29.3547
-29.5717
-29.8164
-30.0922
-30.4026
-30.7515
-31.1431
-31.5814
-32.0702
-32.6122
-33.2085
-33.8575
-34.5535
-35.2847
-36.031
-36.761
-37.4291
-37.971
-38.2999
)
;
    }
    right
    {
        type            calculated;
        value           nonuniform List<scalar> 
32
(
-29.0501
-29.0711
-29.1115
-29.1701
-29.2463
-29.34
-29.4513
-29.5809
-29.7293
-29.8976
-30.087
-30.2987
-30.5341
-30.7948
-31.0823
-31.398
-31.7433
-32.1192
-32.526
-32.9635
-33.4305
-33.924
-34.4395
-34.9701
-35.5061
-36.035
-36.5413
-37.0067
-37.4109
-37.7338
-37.9573
-38.0684
)
;
    }
    interface
    {
        type            calculated;
        value           nonuniform List<scalar> 
64
(
-38.3987
-46.1539
-29.1706
-19.8028
-30.1059
-26.1283
-22.056
-27.0782
-24.6933
-28.402
-25.4903
-23.5158
-26.2132
-25.4284
-24.5059
-25.8228
-25.3197
-26.2254
-25.5717
-25.4168
-26.1108
-25.6373
-25.3808
-25.7851
-25.6541
-25.8925
-25.7272
-25.7061
-25.8324
-25.7465
-25.7477
-25.7555
-25.7696
-25.6824
-25.7301
-25.874
-25.6546
-25.691
-25.9089
-25.5825
-25.7366
-25.2425
-25.5462
-25.7897
-24.744
-25.426
-26.4769
-24.9891
-25.7631
-23.7123
-25.1135
-26.2912
-22.0682
-25.1018
-29.7898
-23.7821
-27.7487
-19.2097
-26.242
-34.901
-16.451
-52.9476
-40.3357
-38.0947
)
;
    }
    bottom
    {
        type            calculated;
        value           nonuniform List<scalar> 
64
(
-28.1428
-28.1236
-28.0861
-28.032
-27.9636
-27.8838
-27.7955
-27.7015
-27.6046
-27.5072
-27.4112
-27.3184
-27.2298
-27.1465
-27.0689
-26.9975
-26.9323
-26.8732
-26.8202
-26.7729
-26.7311
-26.6943
-26.6624
-26.635
-26.6118
-26.5925
-26.577
-26.565
-26.5563
-26.551
-26.5489
-26.55
-26.5544
-26.5622
-26.5735
-26.5885
-26.6075
-26.6308
-26.6587
-26.6918
-26.7304
-26.7751
-26.8265
-26.885
-26.9513
-27.0258
-27.1092
-27.2017
-27.3035
-27.4148
-27.5353
-27.6644
-27.801
-27.9438
-28.0908
-28.2393
-28.3862
-28.5279
-28.6604
-28.7796
-28.8811
-28.9611
-29.0164
-29.0447
)
;
    }
    defaultFaces
    {
        type            empty;
    }
}


// ************************************************************************* //
