/*--------------------------------*- C++ -*----------------------------------*\
| =========                 |                                                 |
| \\      /  F ield         | OpenFOAM: The Open Source CFD Toolbox           |
|  \\    /   O peration     | Version:  5.x                                   |
|   \\  /    A nd           | Web:      www.OpenFOAM.org                      |
|    \\/     M anipulation  |                                                 |
\*---------------------------------------------------------------------------*/
FoamFile
{
    version     2.0;
    format      ascii;
    class       volScalarField;
    location    "0.3";
    object      gradTx;
}
// * * * * * * * * * * * * * * * * * * * * * * * * * * * * * * * * * * * * * //

dimensions      [0 -1 0 1 0 0 0];

internalField   nonuniform List<scalar> 
2048
(
0.00442045
0.0130395
0.0210626
0.0281534
0.0340548
0.0386532
0.0419112
0.0438791
0.044677
0.0444638
0.0434158
0.041711
0.0395176
0.0369871
0.0342499
0.031414
0.028565
0.0257673
0.0230664
0.0204918
0.0180596
0.0157755
0.0136375
0.011638
0.0097649
0.00800354
0.00633687
0.00474623
0.0032117
0.00171235
0.000226424
-0.00126863
-0.00279611
-0.00438005
-0.00604521
-0.00781699
-0.00972112
-0.0117833
-0.0140285
-0.01648
-0.0191585
-0.0220807
-0.0252577
-0.0286934
-0.0323815
-0.036303
-0.0404225
-0.0446841
-0.0490071
-0.0532822
-0.0573684
-0.0610924
-0.0642491
-0.0666062
-0.0679127
-0.0679117
-0.0663601
-0.0630532
-0.0578539
-0.050722
-0.0417393
-0.0311229
-0.0192229
-0.00650187
0.0132475
0.0390604
0.0630469
0.0842095
0.101776
0.115397
0.124984
0.130705
0.132935
0.132159
0.128914
0.123734
0.117124
0.109535
0.101353
0.0928975
0.0844206
0.076111
0.0681011
0.0604753
0.053279
0.0465271
0.0402119
0.0343092
0.0287831
0.023589
0.0186761
0.0139892
0.00946891
0.00505339
0.000678168
-0.00372342
-0.00822023
-0.0128834
-0.0177861
-0.0230038
-0.0286128
-0.0346898
-0.041309
-0.0485404
-0.0564463
-0.0650773
-0.0744679
-0.084631
-0.0955511
-0.107175
-0.119401
-0.132068
-0.144939
-0.157695
-0.16992
-0.181099
-0.190624
-0.1978
-0.201874
-0.202072
-0.197653
-0.187989
-0.172649
-0.151495
-0.124757
-0.0930792
-0.057514
-0.0194578
0.0221806
0.0653591
0.105373
0.140541
0.16957
0.191887
0.207394
0.216429
0.219664
0.217948
0.212195
0.203311
0.192135
0.179413
0.165781
0.151758
0.137754
0.12407
0.110916
0.0984226
0.086656
0.0756342
0.0653395
0.0557284
0.0467394
0.038298
0.03032
0.0227138
0.0153824
0.00822407
0.00113347
-0.00599832
-0.0132837
-0.0208388
-0.0287836
-0.0372417
-0.0463389
-0.0562018
-0.0669543
-0.0787131
-0.091583
-0.105651
-0.120977
-0.137589
-0.155469
-0.174539
-0.194643
-0.215529
-0.236822
-0.258005
-0.278403
-0.297176
-0.313316
-0.325671
-0.332978
-0.333923
-0.327235
-0.311813
-0.286875
-0.252131
-0.207918
-0.155293
-0.0960315
-0.0325034
0.0314912
0.0927276
0.149271
0.198675
0.239113
0.269817
0.290748
0.302498
0.306113
0.302866
0.29409
0.28108
0.26502
0.246947
0.227739
0.208107
0.188603
0.169631
0.151463
0.134263
0.118109
0.103011
0.0889362
0.0758167
0.0635633
0.0520702
0.0412198
0.0308848
0.0209311
0.0112186
0.0016024
-0.00806671
-0.0179427
-0.0281847
-0.0389575
-0.0504315
-0.0627815
-0.0761841
-0.0908131
-0.106834
-0.124396
-0.143626
-0.164616
-0.187413
-0.212008
-0.238311
-0.266131
-0.295141
-0.324849
-0.354563
-0.383364
-0.410096
-0.433362
-0.451544
-0.46285
-0.465387
-0.457288
-0.436891
-0.402969
-0.354984
-0.293317
-0.21942
-0.135837
-0.0460045
0.0414371
0.121901
0.195854
0.259969
0.311859
0.350613
0.376356
0.390053
0.393235
0.387679
0.375195
0.357489
0.336098
0.31235
0.287355
0.262005
0.236981
0.212772
0.1897
0.167945
0.147581
0.128602
0.110948
0.0945241
0.0792099
0.0648673
0.0513448
0.0384799
0.0261017
0.0140329
0.00209062
-0.00991282
-0.0221708
-0.0348833
-0.0482581
-0.0625113
-0.0778661
-0.0945495
-0.112787
-0.132795
-0.154772
-0.178886
-0.205268
-0.233995
-0.265075
-0.298424
-0.333835
-0.370933
-0.409133
-0.44759
-0.485164
-0.520396
-0.551502
-0.576393
-0.592719
-0.597956
-0.589553
-0.565167
-0.522983
-0.46208
-0.38279
-0.28693
-0.177882
-0.0602899
0.0522741
0.153601
0.246196
0.325694
0.389124
0.435513
0.4653
0.479986
0.481733
0.472925
0.455903
0.432817
0.405557
0.375735
0.344685
0.313466
0.282873
0.253465
0.225591
0.199431
0.175036
0.152372
0.131345
0.111824
0.0936555
0.0766691
0.0606789
0.0454871
0.0308868
0.0166643
0.00260019
-0.0115298
-0.025956
-0.040917
-0.0566615
-0.0734497
-0.091553
-0.11125
-0.132821
-0.156535
-0.182643
-0.211361
-0.242863
-0.277263
-0.314602
-0.354818
-0.397712
-0.442892
-0.489709
-0.537195
-0.584009
-0.628404
-0.66822
-0.700888
-0.723475
-0.732766
-0.72542
-0.698262
-0.648694
-0.575232
-0.478017
-0.359194
-0.223062
-0.0756713
0.0642683
0.188573
0.30138
0.397093
0.472137
0.525607
0.558466
0.57297
0.572089
0.558935
0.536436
0.507201
0.47347
0.437131
0.399725
0.362464
0.326243
0.291671
0.259102
0.228693
0.200456
0.17431
0.150117
0.127708
0.106894
0.0874702
0.0692175
0.0519031
0.0352843
0.0191114
0.00313031
-0.012918
-0.0292982
-0.0462846
-0.0641642
-0.0832401
-0.103832
-0.12627
-0.150893
-0.178027
-0.207979
-0.241018
-0.277364
-0.317177
-0.360542
-0.407441
-0.457709
-0.510969
-0.566548
-0.623384
-0.679965
-0.734274
-0.783781
-0.82544
-0.855716
-0.870645
-0.865986
-0.837538
-0.781682
-0.696116
-0.580601
-0.437542
-0.27226
-0.092457
0.0777088
0.22762
0.362547
0.475424
0.562078
0.621868
0.656573
0.669481
0.66459
0.645862
0.616864
0.580659
0.539825
0.4965
0.452423
0.408943
0.36704
0.327348
0.290205
0.255718
0.223838
0.19442
0.167273
0.142186
0.118933
0.0972771
0.076966
0.0577319
0.0392962
0.0213744
0.00367819
-0.0140834
-0.0322066
-0.050998
-0.0707799
-0.0918964
-0.114714
-0.13962
-0.167011
-0.197276
-0.230782
-0.267855
-0.308766
-0.353726
-0.402872
-0.45625
-0.513763
-0.575087
-0.639566
-0.706087
-0.772989
-0.838011
-0.898263
-0.950233
-0.98978
-1.01215
-1.01208
-0.984142
-0.923374
-0.826326
-0.69212
-0.523316
-0.326373
-0.110963
0.0929196
0.27163
0.430929
0.561992
0.660099
0.725166
0.760177
0.769807
0.759334
0.733698
0.697126
0.653113
0.604534
0.553755
0.502692
0.452824
0.405197
0.360451
0.318877
0.280505
0.245195
0.212725
0.182839
0.155281
0.129792
0.106106
0.0839375
0.0629831
0.0429287
0.0234545
0.0042398
-0.0150362
-0.0346979
-0.05508
-0.0765364
-0.0994494
-0.124233
-0.151332
-0.181205
-0.21431
-0.251081
-0.291902
-0.337095
-0.386925
-0.441591
-0.501219
-0.565812
-0.63515
-0.708642
-0.785168
-0.862951
-0.939501
-1.01159
-1.07526
-1.12577
-1.15758
-1.16431
-1.13903
-1.07508
-0.967417
-0.814168
-0.617899
-0.386338
-0.131518
0.110271
0.321608
0.507885
0.658174
0.767335
0.836262
0.869668
0.874047
0.856245
0.82229
0.777059
0.724412
0.667462
0.608773
0.550425
0.494015
0.440646
0.390941
0.345109
0.303066
0.264559
0.229263
0.196854
0.167028
0.139502
0.113982
0.0901513
0.0676716
0.0461911
0.0253548
0.00481055
-0.0157898
-0.0367945
-0.0585617
-0.0814723
-0.105943
-0.132436
-0.161452
-0.193522
-0.229179
-0.268926
-0.313208
-0.362401
-0.416817
-0.476722
-0.542338
-0.613801
-0.691052
-0.773628
-0.86045
-0.949657
-1.03854
-1.12356
-1.20033
-1.26358
-1.307
-1.32302
-1.30296
-1.23799
-1.12092
-0.948387
-0.72274
-0.453142
-0.154472
0.130195
0.378711
0.594936
0.765439
0.884902
0.955807
0.985263
0.98211
0.955073
0.911357
0.856414
0.794352
0.728443
0.661413
0.595498
0.532415
0.473316
0.418781
0.368899
0.323432
0.281976
0.24409
0.20937
0.177475
0.1481
0.120934
0.095632
0.0718163
0.0490959
0.0270801
0.00538598
-0.0163591
-0.0385229
-0.061481
-0.0856352
-0.111433
-0.139382
-0.170044
-0.204027
-0.241946
-0.284383
-0.331848
-0.384759
-0.443474
-0.508318
-0.579619
-0.657688
-0.742686
-0.834361
-0.931728
-1.03287
-1.13487
-1.23389
-1.32513
-1.4029
-1.46022
-1.48832
-1.47652
-1.41323
-1.28838
-1.09649
-0.839383
-0.527832
-0.180191
0.153193
0.444275
0.693798
0.885361
1.01389
1.08432
1.10699
1.09371
1.0554
1.00051
0.934881
0.862703
0.787298
0.711527
0.637787
0.567924
0.503139
0.443944
0.390261
0.341646
0.297512
0.257277
0.220454
0.186672
0.155627
0.126998
0.100408
0.0754394
0.0516584
0.0286369
0.00596225
-0.0167601
-0.0399123
-0.0638805
-0.0890796
-0.115982
-0.14514
-0.17718
-0.212791
-0.252685
-0.297533
-0.347908
-0.404266
-0.466991
-0.53646
-0.613104
-0.697445
-0.789951
-0.89067
-0.998782
-1.11233
-1.2282
-1.34221
-1.44925
-1.54326
-1.61683
-1.6601
-1.6601
-1.60181
-1.47136
-1.26029
-0.969472
-0.611522
-0.209062
0.179856
0.51986
0.806417
1.01962
1.15535
1.22216
1.23468
1.20835
1.15667
1.08925
1.01212
0.929231
0.843852
0.758973
0.677169
0.600441
0.530052
0.466416
0.409225
0.357772
0.311247
0.268908
0.23018
0.194682
0.16213
0.132209
0.10451
0.078566
0.0538963
0.0300339
0.00653663
-0.0170089
-0.0409935
-0.0658062
-0.0918654
-0.119662
-0.149788
-0.182941
-0.219897
-0.261481
-0.308466
-0.361492
-0.421038
-0.487492
-0.561259
-0.642865
-0.73307
-0.832752
-0.942386
-1.06139
-1.18777
-1.3182
-1.44815
-1.57216
-1.68401
-1.77617
-1.83795
-1.85387
-1.80464
-1.67143
-1.44172
-1.11477
-0.705375
-0.241478
0.210876
0.607284
0.935012
1.17002
1.31026
1.36952
1.36792
1.32533
1.25814
1.17704
1.08778
0.99372
0.89795
0.803625
0.713532
0.629872
0.553997
0.486191
0.425837
0.37189
0.323281
0.279084
0.238633
0.201564
0.167655
0.136606
0.107972
0.0812238
0.0558294
0.0312814
0.00710782
-0.0171209
-0.0417982
-0.0673066
-0.0940561
-0.122545
-0.15341
-0.187412
-0.225431
-0.268419
-0.317277
-0.372713
-0.435206
-0.505123
-0.582863
-0.669009
-0.764584
-0.871007
-0.989341
-1.11933
-1.25895
-1.40458
-1.55134
-1.69335
-1.82438
-1.93735
-2.0212
-2.05779
-2.02255
-1.8902
-1.64283
-1.27718
-0.810594
-0.27783
0.247058
0.70867
1.08212
1.33846
1.47947
1.52637
1.5061
1.44373
1.35896
1.26328
1.16155
1.05599
0.949463
0.845375
0.746776
0.656128
0.574923
0.503279
0.440163
0.384099
0.333726
0.287918
0.245906
0.207385
0.172245
0.140226
0.110828
0.0834424
0.0574797
0.0323919
0.00767621
-0.0171102
-0.0423573
-0.0684314
-0.0957183
-0.124713
-0.156091
-0.190688
-0.229483
-0.273588
-0.324062
-0.381687
-0.446916
-0.520051
-0.601449
-0.691684
-0.792037
-0.904642
-1.03137
-1.17241
-1.32564
-1.48707
-1.65143
-1.81227
-1.96348
-2.09922
-2.20886
-2.27157
-2.25623
-2.12933
-1.86585
-1.45874
-0.928381
-0.318475
0.289328
0.826493
1.25063
1.52692
1.66366
1.69244
1.64834
1.56244
1.45812
1.34735
1.23316
1.11593
0.998294
0.884142
0.776814
0.679123
0.592783
0.517702
0.452287
0.394511
0.342711
0.295535
0.252094
0.212204
0.175943
0.143107
0.113116
0.085253
0.0588704
0.0333796
0.00824402
-0.0169893
-0.0427008
-0.0692305
-0.0969203
-0.126244
-0.157923
-0.192862
-0.232144
-0.277075
-0.328918
-0.388538
-0.45632
-0.532458
-0.617229
-0.711082
-0.81551
-0.933596
-1.06833
-1.22044
-1.38763
-1.56545
-1.74816
-1.92847
-2.10037
-2.26038
-2.39963
-2.49464
-2.50628
-2.39048
-2.1132
-1.66165
-1.05988
-0.363699
0.33873
0.963622
1.4439
1.73744
1.86326
1.86722
1.79353
1.68013
1.55453
1.42864
1.30245
1.17349
1.04438
0.919873
0.80358
0.698771
0.607532
0.5295
0.462318
0.403256
0.350376
0.302078
0.257301
0.216077
0.178781
0.145282
0.114874
0.0866887
0.0600257
0.0342603
0.00881533
-0.0167686
-0.0428564
-0.0697536
-0.0977316
-0.127221
-0.158997
-0.194035
-0.233506
-0.278963
-0.331934
-0.393388
-0.463578
-0.542538
-0.630448
-0.727448
-0.835116
-0.957806
-1.10004
-1.26326
-1.44477
-1.63951
-1.84136
-2.04159
-2.23403
-2.41919
-2.59181
-2.72619
-2.77314
-2.67529
-2.38756
-1.8883
-1.20609
-0.413659
0.396399
1.12337
1.66579
1.97204
2.07835
2.04991
1.94037
1.79525
1.64695
1.50661
1.36942
1.22872
1.08768
0.952549
0.827022
0.714985
0.619124
0.538725
0.470387
0.410471
0.356867
0.307699
0.261632
0.219051
0.180786
0.146784
0.116144
0.0877835
0.0609703
0.0350516
0.00939593
-0.0164563
-0.0428488
-0.0700493
-0.0982231
-0.127722
-0.159405
-0.194311
-0.233662
-0.279325
-0.333193
-0.396357
-0.468854
-0.550485
-0.641378
-0.741086
-0.851002
-0.97721
-1.12634
-1.30073
-1.49694
-1.70909
-1.93097
-2.1515
-2.36348
-2.57374
-2.78335
-2.96509
-3.05717
-2.98536
-2.69188
-2.14137
-1.36776
-0.468298
0.463511
1.30952
1.92082
2.2327
2.30851
2.2395
2.08736
1.90609
1.73407
1.58075
1.43426
1.28173
1.12815
0.982187
0.847112
0.727668
0.627507
0.54545
0.47666
0.416303
0.362337
0.312574
0.265194
0.22116
0.181969
0.147645
0.116973
0.0885724
0.0617281
0.0357725
0.00999313
-0.0160583
-0.0426991
-0.0701647
-0.098467
-0.127825
-0.159236
-0.193801
-0.232705
-0.278228
-0.332764
-0.397565
-0.472311
-0.556485
-0.65032
-0.752375
-0.863348
-0.991731
-1.14706
-1.33275
-1.5441
-1.77403
-2.01708
-2.25833
-2.48778
-2.72183
-2.97176
-3.20994
-3.3586
-3.32213
-3.0295
-2.42386
-1.54515
-0.527237
0.541175
1.52636
2.21436
2.52114
2.55267
2.43474
2.23287
2.01071
1.81444
1.65067
1.4974
1.33275
1.16571
1.00885
0.863847
0.736706
0.63262
0.549766
0.481338
0.420891
0.366933
0.316898
0.268095
0.222419
0.182333
0.147893
0.117415
0.0890899
0.0623209
0.036444
0.0106153
-0.0155786
-0.0424227
-0.070145
-0.0985383
-0.127602
-0.158575
-0.192622
-0.230728
-0.275727
-0.330701
-0.397128
-0.474119
-0.560694
-0.657589
-0.761783
-0.872371
-1.00127
-1.16195
-1.35925
-1.58625
-1.83412
-2.09989
-2.36261
-2.60605
-2.86102
-3.15405
-3.45907
-3.67767
-3.68669
-3.40425
-2.73928
-1.73786
-0.589625
0.630248
1.77868
2.55285
2.83876
2.80885
2.63437
2.3752
2.107
1.88655
1.71608
1.55965
1.38203
1.20022
1.03267
0.87725
0.741954
0.634383
0.551787
0.484676
0.424363
0.370792
0.3209
0.270442
0.222816
0.181861
0.147559
0.117537
0.0893687
0.0627671
0.0370895
0.0112713
-0.01502
-0.0420286
-0.0700325
-0.0985169
-0.127116
-0.157499
-0.190906
-0.227825
-0.271862
-0.327038
-0.395161
-0.474456
-0.563224
-0.66351
-0.769896
-0.878322
-1.00567
-1.17078
-1.38022
-1.62355
-1.88902
-2.17969
-2.46541
-2.7176
-2.98854
-3.32675
-3.71056
-4.01466
-4.07956
-3.8206
-3.09192
-1.94439
-0.653964
0.731049
2.07177
2.94419
3.18633
3.07394
2.83718
2.51269
2.19262
1.94876
1.77684
1.62224
1.42987
1.23136
1.05387
0.887382
0.743225
0.632694
0.551647
0.486993
0.426812
0.374029
0.324856
0.272338
0.222311
0.180521
0.146674
0.117419
0.0894368
0.0630793
0.0377364
0.0119695
-0.014385
-0.0415169
-0.0698657
-0.0984918
-0.12642
-0.156071
-0.188803
-0.224092
-0.266657
-0.321784
-0.39178
-0.473522
-0.564112
-0.6684
-0.77745
-0.881481
-1.00476
-1.17318
-1.39571
-1.65628
-1.93818
-2.25685
-2.56851
-2.82184
-3.10135
-3.48578
-3.96225
-4.37019
-4.50019
-4.28382
-3.48721
-2.16171
-0.717909
0.842924
2.4113
3.39825
3.5637
3.34326
3.04244
2.64372
2.265
1.99929
1.83288
1.687
1.47652
1.2586
1.07287
0.894337
0.74027
0.627425
0.549505
0.488706
0.428276
0.376719
0.329109
0.273876
0.22082
0.178265
0.14527
0.117167
0.0893135
0.0632621
0.0384181
0.0127167
-0.0136779
-0.0408763
-0.069678
-0.0985664
-0.12555
-0.154333
-0.18649
-0.219628
-0.260122
-0.314914
-0.387104
-0.471559
-0.563288
-0.672539
-0.785382
-0.882148
-0.998269
-1.16874
-1.40581
-1.685
-1.98067
-2.33166
-2.67465
-2.91837
-3.19613
-3.62638
-4.21177
-4.74551
-4.94638
-4.8003
-3.93223
-2.38454
-0.778051
0.963613
2.80327
3.92758
3.96936
3.61022
3.25024
2.76683
2.32128
2.03627
1.88423
1.75653
1.52212
1.28103
1.0903
0.898244
0.732752
0.618417
0.545537
0.49036
0.428704
0.378883
0.334103
0.275133
0.218214
0.175029
0.143385
0.116916
0.089003
0.0633091
0.0391781
0.0135162
-0.0129073
-0.0400805
-0.069495
-0.0988676
-0.124524
-0.152298
-0.184184
-0.214532
-0.252245
-0.306366
-0.381253
-0.468886
-0.560528
-0.676144
-0.794895
-0.880623
-0.985855
-1.15688
-1.41071
-1.71067
-2.01503
-2.40426
-2.78776
-3.0069
-3.26929
-3.74306
-4.45652
-5.14309
-5.41333
-5.37783
-4.43652
-2.60449
-0.829744
1.08839
3.25382
4.54837
4.39983
3.86572
3.46221
2.88066
2.35826
2.0577
1.93089
1.83442
1.56654
1.29725
1.1072
0.899248
0.720224
0.605481
0.539926
0.49268
0.427913
0.380466
0.340421
0.276153
0.214298
0.170739
0.141054
0.116846
0.0884861
0.0631996
0.040075
0.0143657
-0.0120897
-0.0390848
-0.0693305
-0.0995578
-0.123331
-0.149933
-0.18216
-0.208902
-0.243002
-0.296025
-0.374346
-0.46595
-0.555404
-0.67932
-0.807549
-0.877171
-0.967101
-1.13686
-1.4106
-1.73486
-2.03904
-2.47443
-2.91346
-3.08714
-3.31706
-3.82944
-4.69357
-5.5675
-5.89235
-6.02602
-5.01309
-2.80882
-0.866995
1.20887
3.76894
5.28171
4.84888
4.09753
3.68231
2.98391
2.37229
2.06151
1.97268
1.92561
1.60926
1.3052
1.12518
0.897482
0.702091
0.588412
0.532841
0.496645
0.425527
0.381306
0.348845
0.276927
0.208812
0.165316
0.138314
0.117198
0.0877078
0.0628963
0.0411904
0.0152543
-0.0112543
-0.0378202
-0.0691808
-0.100851
-0.121927
-0.147142
-0.180771
-0.202825
-0.232356
-0.283716
-0.36649
-0.463389
-0.547216
-0.681994
-0.825377
-0.87197
-0.941517
-1.10773
-1.40571
-1.76004
-2.04942
-2.54131
-3.05945
-3.15857
-3.33557
-3.87818
-4.91945
-6.02663
-6.36905
-6.75688
-5.67979
-2.97889
-0.88252
1.31152
4.35422
6.15517
5.30658
4.28961
3.91799
3.07507
2.35923
2.04563
2.00906
2.03673
1.64912
1.30193
1.14667
0.893
0.677586
0.567002
0.5244
0.503571
0.420908
0.381111
0.360427
0.27736
0.201415
0.158692
0.13519
0.118291
0.0865618
0.0623412
0.0426383
0.0161584
-0.0104492
-0.0361887
-0.0690158
-0.103032
-0.120228
-0.143741
-0.180483
-0.196369
-0.220266
-0.26919
-0.357758
-0.462134
-0.534923
-0.683843
-0.851043
-0.865025
-0.908566
-1.0683
-1.39612
-1.78995
-2.04154
-2.60307
-3.23624
-3.22011
-3.32108
-3.88083
-5.12977
-6.53348
-6.82102
-7.58546
-6.46108
-3.08811
-0.868061
1.37575
5.0144
7.20486
5.75799
4.42123
4.18164
3.15208
2.31431
2.00815
2.03876
2.17668
1.68406
1.28336
1.17525
0.885679
0.645729
0.541076
0.514609
0.515239
0.413063
0.379418
0.376582
0.277225
0.191678
0.150821
0.131683
0.12055
0.0848694
0.0614542
0.0445779
0.0170368
-0.00974831
-0.0340572
-0.0687668
-0.106485
-0.118102
-0.139432
-0.181908
-0.189563
-0.206699
-0.252115
-0.348157
-0.463523
-0.517049
-0.684181
-0.888032
-0.856046
-0.86772
-1.01706
-1.38169
-1.83015
-2.00904
-2.65645
-3.45793
-3.26962
-3.27026
-3.82777
-5.3185
-7.1086
-7.21482
-8.53066
-7.39015
-3.09937
-0.815093
1.37153
5.75287
8.4778
6.18162
4.4661
4.49233
3.21163
2.23215
1.9475
2.05932
2.35725
1.71077
1.24405
1.21608
0.875062
0.60531
0.510544
0.503283
0.534043
0.400528
0.375556
0.399204
0.276099
0.179083
0.141704
0.12775
0.124539
0.0823538
0.0601311
0.0472281
0.0178241
-0.00926018
-0.0312511
-0.0683108
-0.111726
-0.115359
-0.133758
-0.185859
-0.182368
-0.19165
-0.232062
-0.337571
-0.469457
-0.491589
-0.681835
-0.940897
-0.844279
-0.818533
-0.952193
-1.36176
-1.88861
-1.94341
-2.69621
-3.74324
-3.3031
-3.1806
-3.70813
-5.47698
-7.78326
-7.50209
-9.61629
-8.51168
-2.96181
-0.716062
1.25667
6.57113
10.0348
6.54758
4.39136
4.87794
3.2483
2.1067
1.86278
2.06649
2.59388
1.72424
1.17687
1.27637
0.860139
0.554871
0.475467
0.489916
0.563175
0.381233
0.36861
0.430796
0.273282
0.163025
0.131416
0.123276
0.131002
0.0786071
0.0582437
0.0508852
0.0184233
-0.00913689
-0.0275501
-0.0674493
-0.119435
-0.111745
-0.126064
-0.193411
-0.174635
-0.175168
-0.208499
-0.325687
-0.482584
-0.455906
-0.674982
-1.01556
-0.82828
-0.760766
-0.871557
-1.33484
-1.97651
-1.83353
-2.71445
-4.11675
-3.31374
-3.05103
-3.50991
-5.5923
-8.60353
-7.61499
-10.8722
-9.88487
-2.60692
-0.56634
0.973584
7.46811
11.9537
6.81537
4.15661
5.37767
3.25329
1.93131
1.75417
2.05342
2.90667
1.71728
1.0727
1.36598
0.839054
0.492709
0.436154
0.473531
0.606854
0.352341
0.357373
0.474626
0.267687
0.142823
0.12014
0.118028
0.140914
0.0730514
0.0556419
0.0559415
0.0186963
-0.0095839
-0.0226834
-0.0658819
-0.130504
-0.106936
-0.115436
-0.20597
-0.166057
-0.157392
-0.180797
-0.311887
-0.506519
-0.406615
-0.660955
-1.11964
-0.805616
-0.694543
-0.772696
-1.29812
-2.10918
-1.66522
-2.69976
-4.61042
-3.2906
-2.88261
-3.22007
-5.64527
-9.63541
-7.4606
-12.3358
-11.5871
-1.94379
-0.367031
0.445724
8.43948
14.333
6.9314
3.71286
6.04483
3.21278
1.69893
1.62343
2.00967
3.32138
1.67988
0.920108
1.49812
0.808724
0.416911
0.393277
0.452467
0.670591
0.310061
0.340308
0.534906
0.257716
0.117738
0.108205
0.111605
0.155537
0.0648925
0.0521583
0.0629063
0.0184532
-0.0108696
-0.0163286
-0.0631752
-0.146082
-0.10053
-0.100641
-0.225369
-0.156098
-0.13859
-0.148228
-0.295115
-0.546089
-0.339474
-0.636022
-1.26292
-0.772506
-0.62055
-0.652907
-1.24691
-2.30707
-1.42074
-2.63625
-5.26528
-3.21702
-2.67948
-2.82496
-5.60754
-10.9709
-6.91451
-14.0534
-13.7179
-0.853659
-0.128799
)
;

boundaryField
{
    left
    {
        type            calculated;
        value           uniform 0;
    }
    right
    {
        type            calculated;
        value           uniform 0;
    }
    interface
    {
        type            calculated;
        value           nonuniform List<scalar> 
64
(
0.445724
8.43948
14.333
6.9314
3.71286
6.04483
3.21278
1.69893
1.62343
2.00967
3.32138
1.67988
0.920108
1.49812
0.808724
0.416911
0.393277
0.452467
0.670591
0.310061
0.340308
0.534906
0.257716
0.117738
0.108205
0.111605
0.155537
0.0648925
0.0521583
0.0629063
0.0184532
-0.0108696
-0.0163286
-0.0631752
-0.146082
-0.10053
-0.100641
-0.225369
-0.156098
-0.13859
-0.148228
-0.295115
-0.546089
-0.339474
-0.636022
-1.26292
-0.772506
-0.62055
-0.652907
-1.24691
-2.30707
-1.42074
-2.63625
-5.26528
-3.21702
-2.67948
-2.82496
-5.60754
-10.9709
-6.91451
-14.0534
-13.7179
-0.853659
-0.128799
)
;
    }
    bottom
    {
        type            calculated;
        value           nonuniform List<scalar> 
64
(
0.00442045
0.0130395
0.0210626
0.0281534
0.0340548
0.0386532
0.0419112
0.0438791
0.044677
0.0444638
0.0434158
0.041711
0.0395176
0.0369871
0.0342499
0.031414
0.028565
0.0257673
0.0230664
0.0204918
0.0180596
0.0157755
0.0136375
0.011638
0.0097649
0.00800354
0.00633687
0.00474623
0.0032117
0.00171235
0.000226424
-0.00126863
-0.00279611
-0.00438005
-0.00604521
-0.00781699
-0.00972112
-0.0117833
-0.0140285
-0.01648
-0.0191585
-0.0220807
-0.0252577
-0.0286934
-0.0323815
-0.036303
-0.0404225
-0.0446841
-0.0490071
-0.0532822
-0.0573684
-0.0610924
-0.0642491
-0.0666062
-0.0679127
-0.0679117
-0.0663601
-0.0630532
-0.0578539
-0.050722
-0.0417393
-0.0311229
-0.0192229
-0.00650187
)
;
    }
    defaultFaces
    {
        type            empty;
    }
}


// ************************************************************************* //
