/*--------------------------------*- C++ -*----------------------------------*\
| =========                 |                                                 |
| \\      /  F ield         | OpenFOAM: The Open Source CFD Toolbox           |
|  \\    /   O peration     | Version:  5.x                                   |
|   \\  /    A nd           | Web:      www.OpenFOAM.org                      |
|    \\/     M anipulation  |                                                 |
\*---------------------------------------------------------------------------*/
FoamFile
{
    version     2.0;
    format      ascii;
    class       volScalarField;
    location    "0.3";
    object      T;
}
// * * * * * * * * * * * * * * * * * * * * * * * * * * * * * * * * * * * * * //

dimensions      [0 0 0 1 0 0 0];

internalField   nonuniform List<scalar> 
2048
(
9.79781
9.79795
9.79822
9.79861
9.7991
9.79967
9.80031
9.80098
9.80168
9.80238
9.80307
9.80374
9.80437
9.80497
9.80553
9.80604
9.80651
9.80694
9.80732
9.80766
9.80796
9.80822
9.80845
9.80865
9.80881
9.80895
9.80906
9.80915
9.80921
9.80925
9.80927
9.80926
9.80923
9.80917
9.80909
9.80898
9.80884
9.80868
9.80848
9.80824
9.80796
9.80764
9.80727
9.80685
9.80637
9.80584
9.80524
9.80458
9.80384
9.80304
9.80218
9.80125
9.80027
9.79924
9.79819
9.79712
9.79607
9.79505
9.7941
9.79324
9.79251
9.79194
9.79154
9.79133
9.40219
9.4026
9.40341
9.40457
9.40604
9.40775
9.40965
9.41166
9.41373
9.41581
9.41786
9.41984
9.42173
9.4235
9.42515
9.42667
9.42805
9.42931
9.43043
9.43144
9.43232
9.4331
9.43378
9.43436
9.43485
9.43526
9.43559
9.43584
9.43602
9.43614
9.43618
9.43616
9.43606
9.4359
9.43566
9.43534
9.43494
9.43445
9.43386
9.43316
9.43234
9.4314
9.43031
9.42907
9.42766
9.42608
9.42431
9.42235
9.42019
9.41782
9.41526
9.41251
9.4096
9.40655
9.40342
9.40025
9.3971
9.39407
9.39123
9.38867
9.38649
9.38478
9.38359
9.38298
9.0236
9.02429
9.02564
9.02758
9.03003
9.03288
9.03603
9.03936
9.04279
9.04623
9.0496
9.05286
9.05596
9.05886
9.06156
9.06404
9.0663
9.06835
9.07018
9.07181
9.07326
9.07452
9.07562
9.07656
9.07736
9.07802
9.07856
9.07897
9.07927
9.07945
9.07953
9.07949
9.07934
9.07907
9.07869
9.07817
9.07752
9.07673
9.07577
9.07463
9.07331
9.07177
9.07001
9.06799
9.06571
9.06313
9.06025
9.05705
9.05352
9.04965
9.04545
9.04095
9.03617
9.03116
9.02599
9.02075
9.01555
9.01053
9.00581
9.00156
8.99793
8.99506
8.99308
8.99206
8.66115
8.66214
8.66405
8.6668
8.67026
8.67427
8.67869
8.68336
8.68814
8.69292
8.69761
8.70211
8.70639
8.7104
8.71411
8.71751
8.72061
8.72341
8.72591
8.72814
8.73011
8.73183
8.73333
8.73461
8.7357
8.7366
8.73732
8.73789
8.73829
8.73854
8.73864
8.73859
8.73839
8.73803
8.73751
8.73681
8.73593
8.73485
8.73355
8.73201
8.73021
8.72812
8.72572
8.72298
8.71987
8.71635
8.71242
8.70804
8.7032
8.69789
8.69212
8.68591
8.6793
8.67236
8.66519
8.6579
8.65065
8.64361
8.63699
8.63102
8.6259
8.62185
8.61904
8.61761
8.31402
8.31532
8.31783
8.32144
8.32595
8.33118
8.33691
8.34294
8.3491
8.35523
8.36121
8.36696
8.37239
8.37746
8.38215
8.38644
8.39033
8.39384
8.39698
8.39977
8.40223
8.40438
8.40625
8.40785
8.4092
8.41033
8.41123
8.41193
8.41243
8.41275
8.41287
8.41281
8.41256
8.41212
8.41147
8.41061
8.40952
8.40818
8.40656
8.40465
8.40242
8.39982
8.39682
8.3934
8.38951
8.38512
8.38019
8.37469
8.3686
8.3619
8.35461
8.34674
8.33835
8.32951
8.32033
8.31098
8.30165
8.29256
8.28399
8.27622
8.26955
8.26425
8.26058
8.2587
7.98142
7.98305
7.98622
7.99075
7.9964
8.00291
8.01001
8.01745
8.02501
8.0325
8.03979
8.04675
8.05331
8.05942
8.06505
8.07019
8.07485
8.07903
8.08277
8.08608
8.089
8.09155
8.09376
8.09566
8.09726
8.09858
8.09965
8.10048
8.10108
8.10145
8.1016
8.10153
8.10124
8.10072
8.09996
8.09895
8.09766
8.09608
8.09419
8.09193
8.08929
8.08623
8.08269
8.07864
8.07402
8.06881
8.06294
8.05638
8.0491
8.04107
8.03231
8.02282
8.01267
8.00194
7.99077
7.97933
7.96787
7.95666
7.94605
7.93639
7.92807
7.92145
7.91685
7.91448
7.66261
7.66462
7.6685
7.67403
7.68091
7.68879
7.69733
7.70624
7.71524
7.72412
7.73271
7.74088
7.74856
7.75568
7.76222
7.76817
7.77354
7.77836
7.78266
7.78646
7.78981
7.79273
7.79525
7.79742
7.79924
7.80076
7.80198
7.80292
7.8036
7.80402
7.8042
7.80412
7.80379
7.80321
7.80235
7.8012
7.79974
7.79796
7.7958
7.79324
7.79024
7.78674
7.7827
7.77807
7.77279
7.76681
7.76006
7.7525
7.74409
7.7348
7.72461
7.71355
7.70166
7.68906
7.67587
7.66231
7.64866
7.63525
7.62249
7.61083
7.60074
7.59268
7.58706
7.58417
7.35688
7.35931
7.36399
7.37064
7.37885
7.3882
7.39828
7.40872
7.4192
7.42949
7.43939
7.44877
7.45753
7.46564
7.47305
7.47977
7.48583
7.49124
7.49606
7.50031
7.50405
7.50731
7.51012
7.51253
7.51457
7.51625
7.51761
7.51866
7.51941
7.51988
7.52008
7.52
7.51964
7.51899
7.51805
7.51678
7.51517
7.5132
7.51081
7.50798
7.50465
7.50077
7.49628
7.49112
7.48522
7.47853
7.47096
7.46247
7.45299
7.44248
7.43093
7.41833
7.40474
7.39026
7.37504
7.35933
7.34341
7.3277
7.31266
7.29884
7.28684
7.27722
7.27048
7.26702
7.06356
7.06647
7.07205
7.07993
7.08961
7.10056
7.11228
7.12432
7.13633
7.14805
7.15926
7.16983
7.17967
7.18872
7.19697
7.20443
7.21113
7.21709
7.22239
7.22706
7.23116
7.23472
7.2378
7.24044
7.24266
7.24449
7.24597
7.24711
7.24794
7.24846
7.24867
7.24859
7.2482
7.2475
7.24648
7.24511
7.24337
7.24123
7.23864
7.23557
7.23195
7.22772
7.22283
7.21719
7.21073
7.20339
7.19507
7.18571
7.17522
7.16356
7.15069
7.13659
7.12133
7.10498
7.08772
7.0698
7.05155
7.03342
7.01596
6.99982
6.98572
6.97438
6.96641
6.9623
6.78202
6.78546
6.79207
6.80133
6.81264
6.82531
6.83877
6.85249
6.86608
6.87925
6.89178
6.90353
6.91442
6.92439
6.93344
6.94159
6.94888
6.95536
6.9611
6.96615
6.97057
6.97441
6.97773
6.98056
6.98295
6.98492
6.98651
6.98774
6.98863
6.98918
6.98942
6.98933
6.98893
6.98819
6.9871
6.98564
6.98379
6.9815
6.97874
6.97545
6.97158
6.96705
6.96179
6.95572
6.94877
6.94083
6.93182
6.92165
6.91022
6.89747
6.88333
6.86779
6.85088
6.83268
6.81337
6.79319
6.77252
6.75185
6.73181
6.71316
6.69678
6.68353
6.67419
6.66936
6.51163
6.51569
6.52346
6.53429
6.54738
6.56194
6.57725
6.59273
6.60794
6.62257
6.63642
6.64934
6.66124
6.6721
6.68191
6.69071
6.69855
6.7055
6.71164
6.71703
6.72174
6.72584
6.72937
6.73238
6.73492
6.73701
6.7387
6.74
6.74094
6.74153
6.74179
6.7417
6.74128
6.7405
6.73936
6.73782
6.73587
6.73347
6.73056
6.72709
6.723
6.7182
6.71263
6.70618
6.69877
6.6903
6.68066
6.66974
6.65745
6.64367
6.62833
6.61139
6.59287
6.57283
6.55146
6.52899
6.50582
6.48248
6.45968
6.43832
6.41942
6.40405
6.39319
6.38756
6.2518
6.25658
6.26568
6.27826
6.29335
6.30995
6.32723
6.34454
6.36141
6.37752
6.39268
6.40674
6.41964
6.43134
6.44187
6.45127
6.45962
6.467
6.47349
6.47919
6.48417
6.48849
6.49221
6.49538
6.49804
6.50024
6.50201
6.50338
6.50437
6.50499
6.50526
6.50518
6.50474
6.50393
6.50274
6.50115
6.49912
6.49661
6.49358
6.48996
6.48568
6.48066
6.47481
6.46803
6.46022
6.45127
6.44106
6.42947
6.41637
6.40164
6.38516
6.36688
6.34678
6.32493
6.30149
6.27671
6.25097
6.22483
6.19909
6.17477
6.15311
6.13539
6.12281
6.11628
6.00196
6.00758
6.01821
6.03278
6.05007
6.06889
6.08826
6.10747
6.12602
6.14362
6.16006
6.17524
6.1891
6.20161
6.21282
6.22278
6.23158
6.23934
6.24616
6.25213
6.25734
6.26185
6.26574
6.26905
6.27182
6.27411
6.27596
6.27738
6.27841
6.27906
6.27935
6.27927
6.27882
6.27799
6.27676
6.27512
6.27302
6.27044
6.26731
6.26356
6.25913
6.25392
6.24784
6.24077
6.2326
6.22323
6.21251
6.20032
6.18649
6.17087
6.15332
6.13375
6.11213
6.0885
6.063
6.03587
6.00749
5.97844
5.94956
5.92204
5.89733
5.87699
5.86249
5.85494
5.76157
5.76816
5.78054
5.79738
5.81711
5.83832
5.85991
5.88107
5.90132
5.92039
5.9381
5.95438
5.96916
5.98244
5.99427
6.00474
6.01395
6.02205
6.02915
6.03536
6.04077
6.04546
6.04949
6.05292
6.05579
6.05816
6.06006
6.06153
6.0626
6.06328
6.06357
6.0635
6.06304
6.06219
6.06094
6.05925
6.05711
6.05446
6.05125
6.04741
6.04286
6.0375
6.03122
6.0239
6.01543
6.00568
5.99452
5.98179
5.9673
5.95087
5.93233
5.91153
5.88843
5.86305
5.83552
5.80604
5.77497
5.74288
5.71067
5.67967
5.6516
5.62833
5.61169
5.603
5.53008
5.53781
5.55223
5.57162
5.59406
5.61785
5.64176
5.66492
5.68687
5.70739
5.72635
5.74369
5.75935
5.77336
5.78577
5.79669
5.80627
5.81466
5.822
5.82842
5.834
5.83884
5.843
5.84653
5.84948
5.85191
5.85386
5.85537
5.85647
5.85717
5.85748
5.85741
5.85695
5.85609
5.85481
5.8531
5.85091
5.84822
5.84495
5.84105
5.8364
5.83092
5.82448
5.81695
5.80822
5.79816
5.78661
5.77341
5.75834
5.74118
5.7217
5.69975
5.67523
5.64814
5.6186
5.58678
5.553
5.51776
5.48201
5.44725
5.41547
5.38894
5.36988
5.35993
5.307
5.31604
5.33283
5.35512
5.38054
5.40711
5.43343
5.45862
5.48226
5.50419
5.52436
5.54272
5.55923
5.57392
5.58686
5.5982
5.60809
5.61672
5.62426
5.63085
5.63659
5.64156
5.64583
5.64944
5.65246
5.65494
5.65693
5.65847
5.6596
5.66031
5.66064
5.66057
5.66011
5.65924
5.65794
5.65621
5.654
5.65127
5.64797
5.64402
5.63931
5.63374
5.62717
5.61948
5.61053
5.60019
5.58831
5.57471
5.55914
5.54132
5.521
5.49796
5.47208
5.44333
5.41181
5.37769
5.34118
5.3027
5.26322
5.22438
5.18852
5.15835
5.13659
5.12522
5.0918
5.10239
5.12192
5.14751
5.17621
5.20574
5.23456
5.26178
5.28707
5.31036
5.33171
5.35107
5.36838
5.3837
5.39713
5.40881
5.41896
5.4278
5.43551
5.44225
5.44811
5.4532
5.45755
5.46124
5.46431
5.46682
5.46885
5.47041
5.47155
5.47229
5.47263
5.47256
5.4721
5.47123
5.46992
5.46817
5.46595
5.4632
5.45988
5.45591
5.45116
5.44553
5.43887
5.43105
5.42192
5.41134
5.39918
5.38525
5.36925
5.35087
5.32978
5.30572
5.27854
5.24818
5.21474
5.17837
5.13914
5.09737
5.05395
5.01071
4.97035
4.9361
4.91134
4.89841
4.88401
4.8964
4.91912
4.94846
4.98074
5.0134
5.0448
5.07404
5.1009
5.12551
5.14799
5.1683
5.18638
5.20229
5.21615
5.22814
5.23849
5.24748
5.25533
5.26218
5.26816
5.27334
5.27777
5.28151
5.28462
5.28716
5.2892
5.29079
5.29195
5.2927
5.29304
5.29299
5.29253
5.29165
5.29034
5.28858
5.28635
5.2836
5.28028
5.2763
5.27155
5.26589
5.25916
5.25123
5.24196
5.23119
5.2188
5.2046
5.18826
5.1694
5.14761
5.12262
5.0942
5.06228
5.02697
4.98842
4.94654
4.90144
4.85388
4.8059
4.76059
4.72178
4.69367
4.67904
4.68315
4.69763
4.72407
4.75766
4.79384
4.8298
4.86383
4.89503
4.92339
4.94922
4.97279
4.99404
5.01285
5.02929
5.04354
5.05577
5.06628
5.07538
5.08332
5.09027
5.09633
5.1016
5.1061
5.10988
5.11301
5.11557
5.11763
5.11922
5.12039
5.12115
5.12151
5.12147
5.12101
5.12013
5.11882
5.11705
5.11482
5.11208
5.10877
5.10481
5.10007
5.09441
5.08765
5.07965
5.07026
5.05933
5.04675
5.03235
5.01575
4.9965
4.97411
4.94825
4.91867
4.88521
4.84809
4.80747
4.76304
4.7146
4.66273
4.60965
4.55891
4.51497
4.48316
4.46669
4.48875
4.50566
4.53645
4.57486
4.61523
4.65463
4.69132
4.72441
4.75415
4.78111
4.80574
4.8279
4.84739
4.86433
4.87891
4.89133
4.90194
4.9111
4.91912
4.92614
4.93227
4.93761
4.94217
4.94598
4.94912
4.95168
4.95374
4.95535
4.95653
4.9573
4.95767
4.95763
4.95718
4.9563
4.95499
4.95322
4.951
4.94827
4.94498
4.94106
4.93636
4.93072
4.92395
4.91591
4.90643
4.89536
4.88263
4.8681
4.85134
4.83179
4.80886
4.78222
4.75154
4.71659
4.67771
4.63515
4.58831
4.53659
4.48021
4.42166
4.365
4.31528
4.2794
4.26097
4.30037
4.32006
4.35595
4.39984
4.44466
4.48761
4.52698
4.56184
4.59283
4.62079
4.64646
4.66953
4.68964
4.70704
4.72192
4.73445
4.7451
4.75428
4.76234
4.76942
4.77561
4.78101
4.78563
4.78946
4.7926
4.79515
4.79721
4.79882
4.8
4.80078
4.80116
4.80113
4.80069
4.79982
4.7985
4.79674
4.79453
4.79182
4.78856
4.7847
4.78007
4.77448
4.76772
4.75965
4.75012
4.73892
4.72606
4.71147
4.69463
4.67488
4.6515
4.62415
4.59247
4.55603
4.51542
4.47111
4.42203
4.36715
4.30608
4.24169
4.17859
4.12229
4.08197
4.06153
4.11756
4.14041
4.1823
4.23241
4.28188
4.32847
4.37054
4.40699
4.43906
4.46789
4.49458
4.51859
4.53927
4.55707
4.5722
4.5848
4.59543
4.60457
4.61267
4.61979
4.626
4.63148
4.63616
4.63999
4.6431
4.64563
4.64769
4.6493
4.65048
4.65127
4.65166
4.65164
4.65121
4.65035
4.64903
4.64727
4.64508
4.64239
4.63918
4.63539
4.63084
4.62533
4.6186
4.61054
4.60097
4.58965
4.57668
4.5621
4.54528
4.52544
4.50166
4.47368
4.44109
4.40315
4.36083
4.31497
4.26391
4.20604
4.14009
4.06947
3.99946
3.9356
3.89048
3.86805
3.93992
3.96626
4.01528
4.07246
4.12664
4.17694
4.22172
4.25955
4.2925
4.32203
4.34978
4.37475
4.39592
4.41408
4.42945
4.44203
4.45258
4.46164
4.46975
4.47691
4.48313
4.48868
4.49342
4.49724
4.50032
4.50281
4.50486
4.50647
4.50765
4.50845
4.50885
4.50885
4.50842
4.50757
4.50625
4.50449
4.50232
4.49966
4.49649
4.4928
4.48837
4.48296
4.47627
4.46822
4.45867
4.44721
4.43412
4.41964
4.40293
4.38312
4.359
4.33046
4.2971
4.2576
4.21352
4.1664
4.11364
4.05307
3.98202
3.90478
3.82745
3.75477
3.70456
3.68025
3.76706
3.79718
3.85467
3.91991
3.97871
4.03273
4.08028
4.1192
4.15282
4.18283
4.2117
4.23772
4.25927
4.27775
4.29334
4.30582
4.31624
4.32515
4.33328
4.34047
4.34668
4.35231
4.35712
4.36091
4.36394
4.36638
4.36842
4.37003
4.3712
4.37201
4.37243
4.37243
4.37202
4.37118
4.36985
4.36809
4.36596
4.36333
4.36021
4.35663
4.35232
4.34705
4.34041
4.3324
4.32289
4.31127
4.29805
4.28375
4.26724
4.2476
4.22316
4.19414
4.16019
4.11901
4.07307
4.02504
3.97091
3.90807
3.83164
3.74735
3.66247
3.57929
3.52383
3.4979
3.59863
3.63264
3.70031
3.77478
3.83781
3.89558
3.946
3.9856
4.0197
4.04991
4.08004
4.10723
4.12899
4.14777
4.16359
4.17587
4.1861
4.19479
4.20297
4.21019
4.21634
4.22208
4.22698
4.23071
4.23368
4.23604
4.23809
4.2397
4.24085
4.24167
4.2421
4.24212
4.24173
4.2409
4.23956
4.23779
4.2357
4.2331
4.23001
4.22657
4.22242
4.21732
4.21072
4.20276
4.19336
4.18153
4.16813
4.15412
4.13791
4.1186
4.09382
4.06438
4.0301
3.98705
3.93906
3.89058
3.8354
3.77091
3.68873
3.59693
3.50459
3.40861
3.34793
3.32084
3.43432
3.4721
3.5521
3.63715
3.70363
3.7652
3.8187
3.85845
3.89283
3.92287
3.95448
3.98304
4.00477
4.02383
4.03993
4.05188
4.06187
4.07027
4.07852
4.08579
4.09182
4.0977
4.10272
4.10636
4.10925
4.11152
4.11357
4.11518
4.11631
4.11715
4.1176
4.11763
4.11725
4.11645
4.11509
4.11329
4.11128
4.1087
4.10563
4.10236
4.09836
4.09349
4.08691
4.07901
4.06981
4.0577
4.04402
4.03045
4.0146
3.99583
3.97067
3.94083
3.90662
3.86141
3.81102
3.76271
3.70678
3.64152
3.55305
3.45318
3.35401
3.24203
3.17652
3.14894
3.2739
3.31489
3.40997
3.50724
3.5758
3.64129
3.69824
3.73738
3.77197
3.80131
3.83475
3.86496
3.88628
3.90564
3.92212
3.93355
3.94329
3.95127
3.95968
3.967
3.97283
3.97891
3.9841
3.98758
3.99039
3.99254
3.99462
3.99624
3.99732
3.99819
3.99865
3.99869
3.99833
3.99756
3.99617
3.99434
3.99241
3.98985
3.98677
3.98371
3.97989
3.9753
3.96871
3.96086
3.95199
3.93949
3.9254
3.91246
3.897
3.87907
3.85338
3.82313
3.78958
3.74179
3.68845
3.64116
3.58466
3.51988
3.42436
3.31571
3.2112
3.07867
3.00929
2.98216
3.11723
3.16022
3.27393
3.38537
3.45386
3.52353
3.58454
3.62204
3.65686
3.68479
3.72057
3.75281
3.7732
3.79292
3.80993
3.82059
3.83011
3.8375
3.84619
3.8536
3.8591
3.86546
3.87086
3.87412
3.87685
3.87884
3.88097
3.88261
3.88362
3.88453
3.88501
3.88506
3.88471
3.88399
3.88256
3.88067
3.87887
3.87631
3.87319
3.87039
3.86673
3.86251
3.85585
3.84802
3.83969
3.82664
3.81194
3.79989
3.78482
3.76811
3.74164
3.71091
3.67886
3.6279
3.5708
3.52572
3.4686
3.40611
3.3024
3.18396
3.07694
2.91738
2.846
2.82052
2.96426
3.00712
3.14404
3.27205
3.33721
3.41162
3.4776
3.51198
3.54735
3.57284
3.61171
3.6465
3.66517
3.68538
3.70317
3.71273
3.72209
3.72868
3.73782
3.74537
3.75033
3.75711
3.76281
3.76573
3.7684
3.77016
3.7724
3.77405
3.77497
3.77593
3.77644
3.77649
3.77616
3.77551
3.77402
3.77202
3.77042
3.76784
3.76461
3.76214
3.75862
3.75489
3.74807
3.74022
3.73271
3.71891
3.7033
3.69253
3.67773
3.66277
3.63517
3.60376
3.57444
3.5195
3.45746
3.41628
3.35807
3.3004
3.18691
3.05717
2.95247
2.75666
2.68648
2.66411
2.81512
2.85439
3.02047
3.16798
3.22508
3.30521
3.37752
3.40672
3.44335
3.46493
3.50793
3.54599
3.56181
3.58277
3.6017
3.60965
3.61904
3.62451
3.63435
3.6421
3.64626
3.65362
3.65972
3.66216
3.66482
3.66627
3.66867
3.67036
3.67113
3.67218
3.67272
3.67276
3.67243
3.6719
3.67032
3.66817
3.66683
3.66423
3.66079
3.65877
3.65531
3.65225
3.64514
3.63717
3.63089
3.61608
3.59915
3.5902
3.57538
3.56296
3.53367
3.50119
3.47637
3.41637
3.34772
3.31281
3.25237
3.20313
3.07761
2.93427
2.83965
2.59451
2.53074
2.51305
2.67011
2.70053
2.90349
3.07409
3.11647
3.20398
3.28452
3.30565
3.34487
3.36046
3.40904
3.4513
3.46271
3.48482
3.5054
3.51104
3.52079
3.52467
3.53559
3.54363
3.5466
3.5548
3.56143
3.56317
3.5659
3.56692
3.56958
3.57132
3.57187
3.57306
3.57362
3.57365
3.57332
3.57294
3.57126
3.56886
3.56792
3.56525
3.56148
3.56006
3.55656
3.55441
3.54681
3.53859
3.53411
3.51793
3.49912
3.49276
3.47741
3.46861
3.43685
3.4027
3.38481
3.31833
3.24073
3.2155
3.15065
3.11487
2.97424
2.81376
2.74109
2.42827
2.379
2.36753
2.52975
2.54368
2.79348
2.99158
3.01009
3.10761
3.19899
3.20801
3.25208
3.25874
3.31488
3.36253
3.36738
3.39129
3.4142
3.41656
3.42722
3.42885
3.44136
3.44981
3.45105
3.46044
3.46777
3.46849
3.47145
3.47188
3.47494
3.47674
3.47696
3.47837
3.47893
3.47894
3.47859
3.47843
3.47662
3.47387
3.47347
3.47072
3.46643
3.46584
3.4621
3.46121
3.45288
3.44415
3.44227
3.42427
3.4028
3.40013
3.38341
3.37973
3.34444
3.30763
3.30005
3.22525
3.13551
3.12472
3.05177
3.03644
2.87654
2.6936
2.66046
2.25443
2.23178
2.22775
)
;

boundaryField
{
    left
    {
        type            zeroGradient;
    }
    right
    {
        type            zeroGradient;
    }
    interface
    {
        type            fixedValue;
        value           nonuniform List<scalar> 
64
(
2.46078
2.46078
2.74109
2.95602
2.95602
3.06068
3.15937
3.15937
3.20773
3.20773
3.2691
3.3203
3.3203
3.34562
3.37018
3.37018
3.38175
3.38175
3.39543
3.40416
3.40416
3.41439
3.42218
3.42218
3.42537
3.42537
3.42873
3.43057
3.43057
3.43212
3.43268
3.43268
3.43231
3.43231
3.4304
3.4274
3.4274
3.42458
3.4199
3.4199
3.41588
3.41588
3.40699
3.39783
3.39783
3.3786
3.35525
3.35525
3.33714
3.33714
3.29934
3.26041
3.26041
3.18016
3.082
3.082
3.00193
3.00193
2.82941
2.63091
2.63091
2.15933
2.15933
2.15933
)
;
    }
    bottom
    {
        type            fixedValue;
        value           uniform 10;
    }
    defaultFaces
    {
        type            empty;
    }
}


// ************************************************************************* //
