/*--------------------------------*- C++ -*----------------------------------*\
| =========                 |                                                 |
| \\      /  F ield         | OpenFOAM: The Open Source CFD Toolbox           |
|  \\    /   O peration     | Version:  5.x                                   |
|   \\  /    A nd           | Web:      www.OpenFOAM.org                      |
|    \\/     M anipulation  |                                                 |
\*---------------------------------------------------------------------------*/
FoamFile
{
    version     2.0;
    format      ascii;
    class       volScalarField;
    location    "0.5";
    object      gradTx;
}
// * * * * * * * * * * * * * * * * * * * * * * * * * * * * * * * * * * * * * //

dimensions      [0 -1 0 1 0 0 0];

internalField   nonuniform List<scalar> 
2048
(
0.00585411
0.0172973
0.0280003
0.0375484
0.0456296
0.0520803
0.0568442
0.0599703
0.0615893
0.0618819
0.061054
0.059317
0.0568748
0.0539141
0.0505994
0.0470697
0.0434379
0.0397918
0.0361955
0.0326932
0.0293122
0.0260666
0.0229605
0.0199909
0.017149
0.014422
0.011794
0.00924623
0.00675794
0.00430663
0.00186842
-0.000581816
-0.00307027
-0.00562417
-0.00827166
-0.0110416
-0.0139629
-0.0170641
-0.0203721
-0.0239111
-0.0277006
-0.0317546
-0.036079
-0.0406698
-0.0455103
-0.0505683
-0.0557915
-0.0611033
-0.0663982
-0.0715374
-0.0763464
-0.0806142
-0.0840959
-0.0865181
-0.0875896
-0.0870169
-0.0845265
-0.0798928
-0.072971
-0.0637306
-0.0522823
-0.0388936
-0.023985
-0.00810621
0.0175232
0.0517594
0.0837374
0.112215
0.136256
0.155371
0.169412
0.178547
0.183186
0.183881
0.181259
0.175955
0.168581
0.159692
0.149777
0.139248
0.128439
0.117606
0.106938
0.0965605
0.0865529
0.0769537
0.0677733
0.0590006
0.0506089
0.0425598
0.0348052
0.0272897
0.0199514
0.0127236
0.00553546
-0.00168727
-0.00902216
-0.0165498
-0.0243535
-0.032519
-0.0411325
-0.0502791
-0.0600396
-0.0704863
-0.0816789
-0.0936596
-0.106448
-0.120034
-0.134372
-0.149369
-0.164874
-0.180665
-0.196434
-0.211772
-0.226164
-0.238984
-0.249503
-0.256904
-0.260314
-0.258847
-0.251671
-0.238091
-0.217652
-0.190241
-0.156174
-0.116243
-0.0717128
-0.0242418
0.0292809
0.0864434
0.13971
0.186978
0.226678
0.258014
0.280799
0.295376
0.302485
0.303095
0.298275
0.289099
0.276586
0.261659
0.24512
0.227645
0.209775
0.191927
0.174397
0.157385
0.141009
0.125324
0.110341
0.0960372
0.0823654
0.0692609
0.0566438
0.0444222
0.0324942
0.02075
0.00907367
-0.00265654
-0.0145673
-0.0267904
-0.0394626
-0.0527247
-0.0667196
-0.0815888
-0.0974673
-0.114477
-0.13272
-0.152268
-0.17316
-0.195386
-0.218878
-0.243495
-0.269004
-0.295053
-0.321148
-0.34663
-0.37066
-0.392211
-0.410077
-0.422902
-0.429218
-0.427524
-0.416389
-0.394595
-0.361313
-0.316283
-0.25998
-0.193706
-0.119588
-0.0404414
0.0414632
0.122324
0.197429
0.263719
0.318976
0.362131
0.393038
0.412314
0.42112
0.420911
0.413246
0.399663
0.381599
0.360339
0.336998
0.312503
0.287593
0.262826
0.238595
0.215154
0.192646
0.171132
0.150613
0.131049
0.112369
0.0944823
0.0772755
0.0606207
0.0443761
0.0283901
0.0125024
-0.00345401
-0.0196529
-0.0362751
-0.053509
-0.0715496
-0.0905964
-0.110848
-0.132497
-0.155716
-0.180653
-0.207417
-0.236069
-0.266607
-0.298954
-0.332938
-0.368259
-0.404461
-0.440889
-0.476656
-0.510615
-0.54135
-0.567184
-0.586208
-0.596341
-0.595418
-0.581336
-0.552258
-0.506866
-0.444653
-0.366179
-0.273235
-0.168861
-0.0571357
0.0543833
0.160297
0.258255
0.344104
0.414947
0.469503
0.507787
0.53083
0.540344
0.538367
0.52701
0.508304
0.484115
0.456094
0.42566
0.393982
0.361984
0.330349
0.299545
0.269862
0.241449
0.214356
0.188563
0.164009
0.140596
0.118202
0.0966832
0.0758742
0.0555937
0.0356482
0.0158347
-0.00405753
-0.024247
-0.0449613
-0.0664385
-0.0889271
-0.112684
-0.137966
-0.165027
-0.194096
-0.225371
-0.259002
-0.295079
-0.33362
-0.37455
-0.417682
-0.462681
-0.50901
-0.555886
-0.602216
-0.646569
-0.68715
-0.721811
-0.748082
-0.763232
-0.764373
-0.748633
-0.713416
-0.656758
-0.577751
-0.476932
-0.356554
-0.220645
-0.0747096
0.0683492
0.201234
0.323487
0.429682
0.516205
0.581663
0.626404
0.652069
0.661088
0.656201
0.640138
0.615454
0.584451
0.549143
0.511246
0.472164
0.432989
0.394511
0.357251
0.321508
0.287415
0.254992
0.224189
0.194913
0.167039
0.140415
0.114863
0.0901814
0.0661486
0.0425293
0.0190785
-0.00445612
-0.0283351
-0.05283
-0.0782263
-0.104825
-0.132941
-0.162895
-0.195002
-0.229557
-0.266811
-0.306963
-0.350137
-0.396378
-0.445629
-0.497712
-0.552278
-0.608753
-0.666254
-0.723519
-0.778852
-0.830094
-0.874626
-0.909407
-0.931024
-0.935799
-0.919971
-0.880011
-0.813097
-0.717708
-0.594206
-0.445262
-0.275983
-0.0935254
0.0836793
0.246029
0.394432
0.521955
0.624249
0.699956
0.750005
0.776901
0.784005
0.774891
0.752977
0.72136
0.682773
0.639588
0.593808
0.547064
0.500603
0.455302
0.411706
0.370093
0.330552
0.293055
0.257505
0.223775
0.191709
0.161129
0.131822
0.103549
0.0760469
0.0490385
0.0222375
-0.00464781
-0.0319169
-0.0598816
-0.0888721
-0.119241
-0.151362
-0.185621
-0.222406
-0.262077
-0.304952
-0.351278
-0.401224
-0.454864
-0.512174
-0.573004
-0.637031
-0.703679
-0.772013
-0.840638
-0.907617
-0.970441
-1.02603
-1.07075
-1.1005
-1.11073
-1.09668
-1.05367
-0.977746
-0.866486
-0.719867
-0.540901
-0.335896
-0.11394
0.100718
0.295638
0.47245
0.622434
0.740506
0.825573
0.879487
0.905946
0.909494
0.894687
0.86568
0.82611
0.779124
0.727433
0.673324
0.618645
0.56479
0.512696
0.4629
0.415626
0.370885
0.328575
0.288543
0.250622
0.214631
0.180363
0.147576
0.11599
0.0852988
0.055182
0.0253128
-0.00463772
-0.0350037
-0.0661326
-0.0983955
-0.132195
-0.167964
-0.206161
-0.247249
-0.291668
-0.339803
-0.39196
-0.44835
-0.509084
-0.57418
-0.643539
-0.716898
-0.793732
-0.873107
-0.953536
-1.03287
-1.10826
-1.17617
-1.2324
-1.27211
-1.28988
-1.27978
-1.23576
-1.15238
-1.02594
-0.855738
-0.645017
-0.401416
-0.136314
0.119848
0.351112
0.559005
0.732674
0.866358
0.959571
1.01554
1.03959
1.03772
1.01564
0.978239
0.929669
0.87345
0.812611
0.749716
0.686831
0.625483
0.566651
0.510824
0.458125
0.408452
0.361601
0.317352
0.275497
0.235837
0.198145
0.162147
0.127523
0.0939182
0.0609675
0.0283037
-0.00443619
-0.0376159
-0.0716127
-0.106833
-0.143727
-0.182789
-0.224553
-0.269569
-0.318363
-0.371401
-0.429047
-0.491556
-0.559075
-0.631667
-0.709303
-0.791826
-0.87882
-0.969418
-1.06209
-1.15451
-1.24349
-1.32504
-1.3944
-1.44605
-1.47363
-1.46999
-1.4274
-1.33852
-1.19787
-1.00365
-0.759191
-0.47361
-0.161026
0.141508
0.413639
0.655706
0.854312
1.00316
1.10287
1.15866
1.17797
1.16864
1.13761
1.09051
1.03191
0.965632
0.895004
0.822867
0.751512
0.6826
0.617121
0.555471
0.49762
0.443308
0.392199
0.343994
0.298453
0.255371
0.214509
0.175565
0.138171
0.101923
0.0664045
0.031209
-0.00405728
-0.0397812
-0.0763622
-0.114236
-0.153894
-0.195895
-0.240856
-0.28942
-0.342217
-0.399802
-0.462603
-0.53091
-0.6049
-0.684677
-0.770302
-0.861763
-0.95883
-1.06078
-1.16611
-1.27233
-1.37593
-1.47246
-1.55662
-1.62224
-1.66211
-1.66776
-1.62951
-1.53756
-1.38403
-1.16549
-0.885079
-0.553602
-0.18847
0.166203
0.484577
0.764341
0.989082
1.15224
1.25626
1.30912
1.32101
1.30198
1.2603
1.20224
1.13263
1.0555
0.974463
0.892635
0.812563
0.736045
0.664058
0.596846
0.53416
0.475528
0.420454
0.368548
0.319553
0.273279
0.229493
0.187861
0.147962
0.109334
0.071505
0.0340279
-0.00351728
-0.0415326
-0.0804298
-0.120664
-0.162766
-0.207357
-0.255141
-0.306873
-0.363301
-0.425081
-0.492711
-0.566506
-0.646653
-0.733285
-0.82656
-0.926661
-1.03363
-1.14701
-1.26537
-1.38609
-1.50532
-1.61814
-1.71873
-1.80037
-1.85514
-1.87324
-1.84275
-1.75078
-1.58619
-1.3432
-1.02443
-0.642578
-0.219061
0.194524
0.565495
0.886928
1.13884
1.31489
1.42035
1.46694
1.46838
1.43727
1.38329
1.31311
1.2316
1.14289
1.05082
0.958862
0.869841
0.785716
0.707417
0.634964
0.56781
0.505209
0.446469
0.391104
0.338865
0.289613
0.243136
0.19907
0.156929
0.116176
0.0762839
0.0367609
-0.00283352
-0.0429067
-0.0838711
-0.12619
-0.170425
-0.21726
-0.267495
-0.32201
-0.381693
-0.447326
-0.519473
-0.598461
-0.684456
-0.777599
-0.878135
-0.986489
-1.1031
-1.22789
-1.35961
-1.49549
-1.63133
-1.76172
-1.8803
-1.97994
-2.05226
-2.0863
-2.06759
-1.97934
-1.80613
-1.53884
-1.1791
-0.74179
-0.253235
0.227162
0.658216
1.02575
1.30556
1.49236
1.59558
1.63194
1.61948
1.57384
1.50602
1.42276
1.32859
1.22759
1.12392
1.02139
0.923199
0.831505
0.747161
0.66986
0.598657
0.532469
0.470369
0.411768
0.356464
0.304422
0.25548
0.209232
0.165105
0.122479
0.0807596
0.0394107
-0.00202333
-0.0439428
-0.0867464
-0.130892
-0.17696
-0.2257
-0.278014
-0.334921
-0.397482
-0.466631
-0.543005
-0.626913
-0.718464
-0.817766
-0.925121
-1.04124
-1.1671
-1.3032
-1.44855
-1.60024
-1.75365
-1.9028
-2.04078
-2.16023
-2.25273
-2.30647
-2.30422
-2.22431
-2.04564
-1.75459
-1.35109
-0.852547
-0.291432
0.264924
0.764865
1.1834
1.49137
1.68578
1.78217
1.80363
1.77348
1.71083
1.62787
1.53083
1.42337
1.30946
1.1936
1.08006
0.972482
0.873305
0.783259
0.701586
0.626812
0.557452
0.492299
0.430655
0.372425
0.317755
0.266565
0.218386
0.172529
0.128276
0.0849542
0.0419825
-0.00110318
-0.0446813
-0.0891201
-0.134852
-0.182469
-0.232781
-0.2868
-0.345702
-0.410757
-0.483094
-0.563429
-0.652019
-0.74886
-0.853973
-0.967655
-1.09092
-1.2255
-1.3727
-1.53191
-1.70005
-1.87194
-2.04099
-2.19963
-2.3404
-2.45552
-2.53299
-2.5526
-2.48661
-2.30657
-1.99279
-1.54252
-0.976192
-0.334086
0.30875
0.887919
1.36283
1.69847
1.89618
1.9801
1.98125
1.92926
1.8472
1.74814
1.63697
1.51579
1.38837
1.25973
1.13471
1.01753
0.911003
0.815696
0.730219
0.652408
0.580321
0.512426
0.44789
0.386817
0.329652
0.276425
0.226575
0.179244
0.133601
0.088894
0.0444845
-8.80336e-05
-0.0451627
-0.0910589
-0.138162
-0.187054
-0.238614
-0.293965
-0.354451
-0.421607
-0.496812
-0.580877
-0.673951
-0.775853
-0.886453
-1.00593
-1.13559
-1.27818
-1.43615
-1.60942
-1.79463
-1.98592
-2.17595
-2.35627
-2.51945
-2.65932
-2.7647
-2.81236
-2.76705
-2.59078
-2.25594
-1.75568
-1.11406
-0.381591
0.359716
1.03026
1.56745
1.92922
2.12436
2.18906
2.16377
2.08546
1.98174
1.86614
1.74095
1.60576
1.46421
1.32222
1.18522
1.05818
0.944484
0.844469
0.755863
0.675601
0.601264
0.530939
0.463607
0.399706
0.34014
0.285095
0.233843
0.185294
0.138496
0.0926094
0.0469285
0.00100908
-0.0454265
-0.0926306
-0.140911
-0.190821
-0.243315
-0.299627
-0.36127
-0.430114
-0.507878
-0.595481
-0.692891
-0.799671
-0.915482
-1.0402
-1.17534
-1.32501
-1.49329
-1.68083
-1.88375
-2.09532
-2.30742
-2.51026
-2.69631
-2.86249
-3.00004
-3.08289
-3.06631
-2.90017
-2.54678
-1.99303
-1.26742
-0.434258
0.41903
1.19522
1.80114
2.18597
2.37086
2.40847
2.34987
2.24043
2.11309
1.98115
1.84265
1.69328
1.53693
1.381
1.23145
1.09425
0.973622
0.869591
0.778652
0.696566
0.620485
0.548052
0.477947
0.41114
0.349234
0.292601
0.240242
0.190728
0.143002
0.0961353
0.0493295
0.00217717
-0.0455105
-0.0939039
-0.143197
-0.193878
-0.247002
-0.303911
-0.366262
-0.436355
-0.516371
-0.60737
-0.709029
-0.820553
-0.941381
-1.07079
-1.21028
-1.36586
-1.54387
-1.74588
-1.9672
-2.19995
-2.43527
-2.66126
-2.86986
-3.0631
-3.23705
-3.3632
-3.38494
-3.23663
-2.8683
-2.25725
-1.43735
-0.492246
0.488005
1.38665
2.06842
2.47112
2.63576
2.63745
2.53796
2.39228
2.23971
2.09254
1.94217
1.77845
1.60648
1.43604
1.2733
1.12556
0.998281
0.891097
0.798763
0.71549
0.638205
0.564013
0.491058
0.421151
0.356928
0.298969
0.245828
0.195597
0.147163
0.0995119
0.0517057
0.00340713
-0.0454491
-0.0949466
-0.145115
-0.196331
-0.249797
-0.306954
-0.369532
-0.440392
-0.52236
-0.616676
-0.722562
-0.83874
-0.964515
-1.09812
-1.24058
-1.40056
-1.58759
-1.80437
-2.04485
-2.29959
-2.55949
-2.80921
-3.03897
-3.25887
-3.47328
-3.65201
-3.7234
-3.60199
-3.22384
-2.55131
-1.62464
-0.555466
0.567991
1.60893
2.37457
2.78693
2.91862
2.87483
2.72627
2.53884
2.35994
2.19975
2.03984
1.86149
1.67282
1.48736
1.3107
1.15187
1.0183
0.909045
0.816421
0.732566
0.654646
0.579106
0.503092
0.429738
0.363191
0.304219
0.250673
0.199953
0.151019
0.102785
0.0540782
0.00469095
-0.0452724
-0.0958253
-0.146766
-0.198281
-0.251818
-0.308905
-0.371186
-0.442274
-0.525889
-0.623524
-0.733689
-0.85445
-0.985282
-1.12271
-1.26647
-1.42894
-1.62409
-1.8561
-2.11662
-2.39405
-2.68022
-2.95442
-3.2026
-3.44719
-3.70575
-3.94773
-4.08203
-3.9979
-3.61714
-2.87855
-1.82954
-0.623456
0.66025
1.86703
2.72582
3.13543
3.21819
3.11928
2.91285
2.67768
2.47191
2.30231
2.1364
1.94269
1.73581
1.53508
1.34359
1.17292
1.0335
0.923521
0.831918
0.747973
0.670029
0.593668
0.514205
0.436865
0.367963
0.308373
0.254867
0.203847
0.15461
0.106009
0.0564703
0.00602043
-0.0450039
-0.0966041
-0.148258
-0.199823
-0.253179
-0.30993
-0.371335
-0.44203
-0.52698
-0.628039
-0.742622
-0.867859
-1.00411
-1.14525
-1.2882
-1.45074
-1.65298
-1.90094
-2.18255
-2.48304
-2.79776
-3.0977
-3.35979
-3.62509
-3.93091
-4.24843
-4.46123
-4.42565
-4.05249
-3.24289
-2.05149
-0.695213
0.765738
2.16648
3.12972
3.51821
3.5322
3.36944
3.0957
2.8061
2.57363
2.39993
2.23303
2.02244
1.7952
1.5794
1.37197
1.1884
1.04364
0.934647
0.845639
0.761855
0.684551
0.608112
0.524554
0.442443
0.371153
0.311455
0.258528
0.207324
0.157965
0.109249
0.0589058
0.00738494
-0.0446581
-0.0973433
-0.149704
-0.201036
-0.253981
-0.310226
-0.370095
-0.439668
-0.525618
-0.630348
-0.749596
-0.879066
-1.02142
-1.16658
-1.30608
-1.46565
-1.67378
-1.93881
-2.24284
-2.56608
-2.91249
-3.24054
-3.50972
-3.78919
-4.14458
-4.55192
-4.86152
-4.88583
-4.53488
-3.64911
-2.28868
-0.768991
0.884766
2.51335
3.59551
3.93614
3.85698
3.62413
3.27283
2.92111
2.66287
2.49244
2.33157
2.10109
1.85049
1.6207
1.39588
1.19791
1.04845
0.94258
0.858093
0.774287
0.698367
0.622955
0.534292
0.446318
0.372634
0.313493
0.261816
0.210415
0.161103
0.112586
0.0614075
0.00876801
-0.0442367
-0.0980976
-0.151235
-0.201984
-0.254305
-0.310024
-0.367587
-0.435169
-0.521748
-0.630583
-0.754892
-0.888047
-1.03765
-1.18783
-1.32046
-1.47327
-1.68586
-1.9697
-2.29791
-2.64238
-3.02485
-3.38538
-3.65179
-3.93573
-4.34183
-4.85577
-5.28388
-5.37789
-5.07022
-4.10329
-2.53757
-0.84207
1.01649
2.91418
4.13477
4.38898
4.18705
3.88278
3.44234
3.01935
2.7372
2.57977
2.43469
2.17893
1.90081
1.65964
1.41541
1.20092
1.0476
0.947514
0.869969
0.78523
0.711561
0.638868
0.543555
0.44825
0.37224
0.314524
0.264948
0.213127
0.164018
0.116128
0.0639938
0.0101425
-0.0437236
-0.098913
-0.153006
-0.2027
-0.254199
-0.309613
-0.363942
-0.428487
-0.51526
-0.628882
-0.758876
-0.894599
-1.05313
-1.21041
-1.33172
-1.47305
-1.68848
-1.99371
-2.3486
-2.71063
-3.13517
-3.53588
-3.78553
-4.06053
-4.51692
-5.15729
-5.73012
-5.89931
-5.66558
-4.61342
-2.79201
-0.910522
1.15817
3.3758
4.76227
4.87485
4.5146
4.146
3.60249
3.09709
2.79395
2.66195
2.54618
2.25604
1.94473
1.6973
1.43072
1.19679
1.04069
0.949676
0.882206
0.794462
0.724109
0.656744
0.552449
0.4479
0.369777
0.314592
0.268225
0.215426
0.166681
0.120019
0.0666743
0.0114641
-0.0430783
-0.0998218
-0.155214
-0.203185
-0.253656
-0.309361
-0.359293
-0.419547
-0.505977
-0.625393
-0.762057
-0.898269
-1.06814
-1.23623
-1.34022
-1.46434
-1.68066
-2.011
-2.39633
-2.76874
-3.2435
-3.69738
-3.91058
-4.15899
-4.66319
-5.45354
-6.20364
-6.44461
-6.32964
-5.19027
-3.0423
-0.968996
1.30416
3.90515
5.4971
5.38957
4.82877
4.41631
3.75168
3.15013
2.8302
2.7389
2.67132
2.3321
1.98006
1.7354
1.44196
1.18466
1.02725
0.9493
0.896098
0.801495
0.735835
0.677783
0.561016
0.4448
0.365022
0.313747
0.272059
0.217213
0.169021
0.124458
0.0694431
0.0126624
-0.042227
-0.100836
-0.158114
-0.203392
-0.252595
-0.309743
-0.353772
-0.408249
-0.493634
-0.620261
-0.765181
-0.898257
-1.08272
-1.26773
-1.34628
-1.4463
-1.66118
-2.02178
-2.44341
-2.81358
-3.3494
-3.87734
-4.02654
-4.2262
-4.7729
-5.74119
-6.7104
-7.0038
-7.07305
-5.84863
-3.27379
-1.01061
1.44452
4.50896
6.36421
5.92568
5.11493
4.6993
3.88831
3.1737
2.84284
2.81026
2.81732
2.40614
2.00352
1.77662
1.44927
1.16345
1.00676
0.946591
0.91343
0.805463
0.746353
0.703616
0.569186
0.43834
0.357742
0.312032
0.277017
0.218296
0.170922
0.129726
0.072269
0.0136301
-0.0410518
-0.101937
-0.162053
-0.203217
-0.250822
-0.31139
-0.347497
-0.394474
-0.477863
-0.61361
-0.769343
-0.893312
-1.09665
-1.3082
-1.35004
-1.418
-1.62851
-2.02625
-2.49348
-2.8405
-3.45151
-4.08615
-4.13264
-4.257
-4.83715
-6.01625
-7.26045
-7.56029
-7.90912
-6.60886
-3.46506
-1.02701
1.56324
5.19332
7.3963
6.47132
5.35372
5.00497
4.01051
3.16238
2.82862
2.87508
2.994
2.47626
2.01048
1.82497
1.45264
1.1318
0.978672
0.941651
0.936659
0.804976
0.755001
0.736463
0.57671
0.427745
0.347717
0.309465
0.283874
0.218342
0.172207
0.136211
0.075083
0.01421
-0.0393784
-0.103061
-0.167501
-0.202488
-0.24799
-0.31514
-0.340548
-0.378098
-0.458171
-0.605507
-0.776161
-0.881597
-1.10928
-1.36195
-1.35137
-1.37838
-1.58077
-2.02444
-2.55205
-2.84298
-3.54715
-4.33791
-4.2273
-4.24624
-4.8457
-6.27362
-7.87006
-8.0882
-8.85453
-7.49894
-3.58558
-1.00873
1.63606
5.96319
8.63627
7.00874
5.51997
5.34958
4.1156
3.11004
2.78434
2.93126
3.21451
2.53917
1.99454
1.88638
1.45173
1.08802
0.94246
0.934373
0.969155
0.797937
0.760765
0.779327
0.58306
0.412064
0.334771
0.306004
0.293677
0.216832
0.172629
0.144456
0.0777596
0.0141797
-0.0369609
-0.104076
-0.175096
-0.200946
-0.243541
-0.322112
-0.332933
-0.359014
-0.433918
-0.595894
-0.787982
-0.86054
-1.11937
-1.43468
-1.34965
-1.32635
-1.51565
-2.01596
-2.62726
-2.812
-3.63168
-4.65163
-4.30741
-4.1891
-4.78698
-6.50619
-8.56456
-8.54879
-9.93024
-8.55699
-3.5928
-0.946007
1.62766
6.82174
10.1401
7.51246
5.58155
5.75785
4.19926
3.00977
2.70711
2.97498
3.49633
2.58972
1.94708
1.96929
1.44567
1.03005
0.8977
0.924278
1.0155
0.781326
0.762191
0.836235
0.587289
0.390162
0.318821
0.301493
0.307838
0.212986
0.171859
0.1552
0.0800949
0.0132346
-0.0334671
-0.10476
-0.185702
-0.198239
-0.236634
-0.3338
-0.324534
-0.337168
-0.404302
-0.584494
-0.80815
-0.826656
-1.12489
-1.53386
-1.34347
-1.26092
-1.43041
-1.9997
-2.73077
-2.73549
-3.69778
-5.05257
-4.3674
-4.08157
-4.64799
-6.70359
-9.38216
-8.88601
-11.1627
-9.83436
-3.42838
-0.830217
1.48851
7.76961
11.9803
7.9471
5.49804
6.26565
4.25437
2.854
2.59474
2.9997
3.86244
2.62027
1.8568
2.08554
1.4326
0.955511
0.844183
0.910284
1.08186
0.75093
0.757287
0.912528
0.587852
0.360733
0.299932
0.295594
0.32824
0.205687
0.169479
0.169436
0.0817765
0.0109714
-0.0284624
-0.104763
-0.200475
-0.193908
-0.226064
-0.352183
-0.315031
-0.312605
-0.36835
-0.570673
-0.841332
-0.775366
-1.12271
-1.66927
-1.3303
-1.18134
-1.32191
-1.97326
-2.87893
-2.59764
-3.73452
-5.57399
-4.39782
-3.9212
-4.41446
-6.85032
-10.3787
-9.02111
-12.585
-11.3993
-3.01373
-0.656083
1.15114
8.80407
14.2499
8.26488
5.21938
6.92314
4.26935
2.63453
2.44627
2.9951
4.34275
2.61995
1.70918
2.25127
1.40926
0.861643
0.782063
0.89041
1.17642
0.701036
0.743422
1.01519
0.582382
0.322325
0.278392
0.28768
0.357361
0.19338
0.164978
0.188477
0.0823481
0.00687024
-0.0213963
-0.103568
-0.220929
-0.187377
-0.210153
-0.379867
-0.303806
-0.285529
-0.324919
-0.553246
-0.893899
-0.700787
-1.10834
-1.85356
-1.30599
-1.08737
-1.18661
-1.93229
-3.09405
-2.37818
-3.72628
-6.25913
-4.38372
-3.70795
-4.0711
-6.92314
-11.6339
-8.84611
-14.2389
-13.3409
-2.24457
-0.424927
0.52599
9.91809
17.0665
8.40265
4.68447
7.79831
4.22612
2.34293
2.26266
2.94559
4.97573
2.57378
1.4859
2.48805
1.37034
0.745442
0.712058
0.861385
1.30992
0.624074
0.71722
1.15324
0.567403
0.273391
0.254797
0.276709
0.398435
0.173953
0.157747
0.214026
0.0811667
0.000280985
-0.0115909
-0.100437
-0.249025
-0.177952
-0.186635
-0.420246
-0.289813
-0.256385
-0.272716
-0.530246
-0.974369
-0.595528
-1.07553
-2.10291
-1.26417
-0.979565
-1.0207
-1.86962
-3.40597
-2.05168
-3.65147
-7.16362
-4.30248
-3.44533
-3.6021
-6.88776
-13.2583
-8.21636
-16.1761
-15.7743
-0.984632
-0.149055
)
;

boundaryField
{
    left
    {
        type            calculated;
        value           uniform 0;
    }
    right
    {
        type            calculated;
        value           uniform 0;
    }
    interface
    {
        type            calculated;
        value           nonuniform List<scalar> 
64
(
0.52599
9.91809
17.0665
8.40265
4.68447
7.79831
4.22612
2.34293
2.26266
2.94559
4.97573
2.57378
1.4859
2.48805
1.37034
0.745442
0.712058
0.861385
1.30992
0.624074
0.71722
1.15324
0.567403
0.273391
0.254797
0.276709
0.398435
0.173953
0.157747
0.214026
0.0811667
0.000280985
-0.0115909
-0.100437
-0.249025
-0.177952
-0.186635
-0.420246
-0.289813
-0.256385
-0.272716
-0.530246
-0.974369
-0.595528
-1.07553
-2.10291
-1.26417
-0.979565
-1.0207
-1.86962
-3.40597
-2.05168
-3.65147
-7.16362
-4.30248
-3.44533
-3.6021
-6.88776
-13.2583
-8.21636
-16.1761
-15.7743
-0.984632
-0.149055
)
;
    }
    bottom
    {
        type            calculated;
        value           nonuniform List<scalar> 
64
(
0.00585411
0.0172973
0.0280003
0.0375484
0.0456296
0.0520803
0.0568442
0.0599703
0.0615893
0.0618819
0.061054
0.059317
0.0568748
0.0539141
0.0505994
0.0470697
0.0434379
0.0397918
0.0361955
0.0326932
0.0293122
0.0260666
0.0229605
0.0199909
0.017149
0.014422
0.011794
0.00924623
0.00675794
0.00430663
0.00186842
-0.000581816
-0.00307027
-0.00562417
-0.00827166
-0.0110416
-0.0139629
-0.0170641
-0.0203721
-0.0239111
-0.0277006
-0.0317546
-0.036079
-0.0406698
-0.0455103
-0.0505683
-0.0557915
-0.0611033
-0.0663982
-0.0715374
-0.0763464
-0.0806142
-0.0840959
-0.0865181
-0.0875896
-0.0870169
-0.0845265
-0.0798928
-0.072971
-0.0637306
-0.0522823
-0.0388936
-0.023985
-0.00810621
)
;
    }
    defaultFaces
    {
        type            empty;
    }
}


// ************************************************************************* //
