/*--------------------------------*- C++ -*----------------------------------*\
| =========                 |                                                 |
| \\      /  F ield         | OpenFOAM: The Open Source CFD Toolbox           |
|  \\    /   O peration     | Version:  5.x                                   |
|   \\  /    A nd           | Web:      www.OpenFOAM.org                      |
|    \\/     M anipulation  |                                                 |
\*---------------------------------------------------------------------------*/
FoamFile
{
    version     2.0;
    format      ascii;
    class       volScalarField;
    location    "0.5";
    object      gradTy;
}
// * * * * * * * * * * * * * * * * * * * * * * * * * * * * * * * * * * * * * //

dimensions      [0 -1 0 1 0 0 0];

internalField   nonuniform List<scalar> 
2048
(
-26.3925
-26.3668
-26.3166
-26.244
-26.1519
-26.044
-25.9238
-25.7952
-25.6616
-25.5261
-25.3914
-25.2596
-25.1327
-25.0118
-24.8978
-24.7915
-24.693
-24.6025
-24.5199
-24.4451
-24.3778
-24.3177
-24.2645
-24.218
-24.1777
-24.1435
-24.115
-24.0922
-24.0749
-24.0629
-24.0562
-24.0547
-24.0586
-24.068
-24.083
-24.1039
-24.1309
-24.1645
-24.205
-24.2529
-24.3087
-24.3731
-24.4466
-24.5298
-24.6233
-24.7276
-24.8431
-24.9702
-25.109
-25.2592
-25.4204
-25.5918
-25.7718
-25.9586
-26.1494
-26.3411
-26.5297
-26.7108
-26.8794
-27.0303
-27.1586
-27.2595
-27.3292
-27.3648
-26.412
-26.3854
-26.3334
-26.2583
-26.1634
-26.0524
-25.9293
-25.7978
-25.6616
-25.5239
-25.3874
-25.2542
-25.1262
-25.0045
-24.89
-24.7834
-24.6848
-24.5943
-24.5119
-24.4372
-24.3701
-24.3103
-24.2573
-24.211
-24.1709
-24.1369
-24.1086
-24.0859
-24.0686
-24.0566
-24.0499
-24.0484
-24.0523
-24.0615
-24.0763
-24.0969
-24.1237
-24.1569
-24.197
-24.2445
-24.2999
-24.3639
-24.4369
-24.5197
-24.6127
-24.7167
-24.832
-24.959
-25.0979
-25.2486
-25.4106
-25.5831
-25.7648
-25.9537
-26.1472
-26.3421
-26.5344
-26.7194
-26.8922
-27.0473
-27.1794
-27.2835
-27.3554
-27.3922
-26.4495
-26.421
-26.3656
-26.2858
-26.1853
-26.0684
-25.9394
-25.8025
-25.6614
-25.5196
-25.3796
-25.2437
-25.1136
-24.9905
-24.8751
-24.7679
-24.6692
-24.5788
-24.4966
-24.4223
-24.3556
-24.2962
-24.2437
-24.1978
-24.1581
-24.1244
-24.0964
-24.0739
-24.0568
-24.0449
-24.0381
-24.0366
-24.0402
-24.0492
-24.0637
-24.0838
-24.11
-24.1426
-24.182
-24.2287
-24.2833
-24.3463
-24.4185
-24.5004
-24.5927
-24.696
-24.8109
-24.9377
-25.0769
-25.2283
-25.3917
-25.5664
-25.7512
-25.9441
-26.1427
-26.3437
-26.5429
-26.7357
-26.9166
-27.0797
-27.2192
-27.3295
-27.4059
-27.4451
-26.5039
-26.4727
-26.412
-26.3252
-26.2165
-26.0909
-25.9534
-25.8086
-25.6606
-25.5128
-25.368
-25.2284
-25.0955
-24.9704
-24.8537
-24.7459
-24.647
-24.5567
-24.4749
-24.4012
-24.3352
-24.2764
-24.2245
-24.1792
-24.14
-24.1068
-24.0792
-24.057
-24.0401
-24.0283
-24.0216
-24.0199
-24.0234
-24.032
-24.0459
-24.0655
-24.0909
-24.1226
-24.161
-24.2065
-24.2599
-24.3217
-24.3925
-24.4732
-24.5643
-24.6666
-24.7808
-24.9073
-25.0467
-25.1991
-25.3644
-25.5421
-25.7311
-25.9297
-26.1355
-26.3451
-26.5544
-26.7583
-26.951
-27.1259
-27.2763
-27.3958
-27.4789
-27.5215
-26.5746
-26.5396
-26.4719
-26.3756
-26.2559
-26.1189
-25.9703
-25.8153
-25.6585
-25.5032
-25.3525
-25.2082
-25.0719
-24.9445
-24.8264
-24.7179
-24.6189
-24.529
-24.4477
-24.3748
-24.3095
-24.2516
-24.2005
-24.156
-24.1176
-24.0849
-24.0579
-24.0361
-24.0194
-24.0078
-24.0011
-23.9993
-24.0024
-24.0105
-24.0239
-24.0426
-24.0671
-24.0977
-24.1347
-24.1789
-24.2307
-24.2908
-24.36
-24.439
-24.5287
-24.6296
-24.7428
-24.8688
-25.0083
-25.1618
-25.3292
-25.5105
-25.7046
-25.9102
-26.1249
-26.3455
-26.5677
-26.786
-26.994
-27.1844
-27.3493
-27.4811
-27.5732
-27.6206
-26.6615
-26.6216
-26.5448
-26.4363
-26.3028
-26.1514
-25.9892
-25.8219
-25.6544
-25.4905
-25.3327
-25.1832
-25.043
-24.9131
-24.7936
-24.6845
-24.5855
-24.4961
-24.4157
-24.3437
-24.2795
-24.2226
-24.1725
-24.1289
-24.0913
-24.0594
-24.033
-24.0117
-23.9954
-23.9839
-23.9772
-23.9752
-23.978
-23.9856
-23.9982
-24.0161
-24.0394
-24.0686
-24.1042
-24.1466
-24.1965
-24.2547
-24.3219
-24.3989
-24.4866
-24.5859
-24.6977
-24.8229
-24.9623
-25.1167
-25.2864
-25.4716
-25.6716
-25.8852
-26.1104
-26.3439
-26.5815
-26.8174
-27.0445
-27.2542
-27.4374
-27.5848
-27.6883
-27.7417
-26.7648
-26.7188
-26.6304
-26.5067
-26.3561
-26.1874
-26.009
-25.8273
-25.6478
-25.474
-25.3086
-25.1533
-25.009
-24.8765
-24.7556
-24.6461
-24.5474
-24.4587
-24.3794
-24.3086
-24.2457
-24.19
-24.1411
-24.0985
-24.0619
-24.0309
-24.0052
-23.9844
-23.9685
-23.9572
-23.9505
-23.9484
-23.9508
-23.9578
-23.9697
-23.9865
-24.0085
-24.0362
-24.07
-24.1104
-24.1582
-24.2141
-24.279
-24.3537
-24.4391
-24.5363
-24.6464
-24.7703
-24.9093
-25.0643
-25.2363
-25.4255
-25.6318
-25.8543
-26.0911
-26.3394
-26.5948
-26.8513
-27.101
-27.3341
-27.5396
-27.7063
-27.824
-27.8849
-26.8851
-26.8313
-26.7286
-26.5862
-26.4149
-26.2258
-26.0286
-25.8307
-25.6378
-25.4533
-25.2797
-25.1183
-24.9699
-24.8348
-24.7127
-24.6031
-24.505
-24.4175
-24.3395
-24.2702
-24.2087
-24.1544
-24.1068
-24.0655
-24.03
-23.9999
-23.975
-23.9549
-23.9394
-23.9283
-23.9216
-23.9193
-23.9213
-23.9277
-23.9387
-23.9544
-23.9751
-24.0011
-24.0329
-24.0712
-24.1165
-24.1699
-24.2321
-24.3041
-24.3869
-24.4816
-24.5894
-24.7117
-24.8497
-25.0051
-25.1789
-25.3721
-25.5849
-25.8168
-26.0662
-26.3307
-26.6061
-26.8861
-27.1622
-27.423
-27.6554
-27.8455
-27.9804
-28.0505
-27.0232
-26.9597
-26.8394
-26.6743
-26.4784
-26.2655
-26.0469
-25.8311
-25.6237
-25.428
-25.2458
-25.0783
-24.9258
-24.7883
-24.6653
-24.5559
-24.4588
-24.3728
-24.2965
-24.2289
-24.1691
-24.1164
-24.0703
-24.0303
-23.9959
-23.967
-23.9429
-23.9235
-23.9084
-23.8976
-23.891
-23.8885
-23.8901
-23.8959
-23.906
-23.9205
-23.9397
-23.9639
-23.9935
-24.0294
-24.0721
-24.1225
-24.1818
-24.2508
-24.3307
-24.4225
-24.5276
-24.6476
-24.7842
-24.9393
-25.1146
-25.3116
-25.5308
-25.7723
-26.035
-26.3169
-26.6141
-26.9205
-27.2268
-27.52
-27.7842
-28.0022
-28.1579
-28.2391
-27.1803
-27.1048
-26.9629
-26.7704
-26.5454
-26.305
-26.0626
-25.8273
-25.6047
-25.3975
-25.2068
-25.0332
-24.8768
-24.7372
-24.6137
-24.5049
-24.4093
-24.3252
-24.251
-24.1855
-24.1275
-24.0765
-24.0319
-23.9933
-23.9603
-23.9325
-23.9094
-23.8907
-23.8761
-23.8656
-23.859
-23.8563
-23.8575
-23.8627
-23.8718
-23.8851
-23.9028
-23.925
-23.9524
-23.9856
-24.0254
-24.0728
-24.1288
-24.1946
-24.2711
-24.3597
-24.4616
-24.5787
-24.7132
-24.8674
-25.0436
-25.2439
-25.4693
-25.7205
-25.9968
-26.2968
-26.6174
-26.9528
-27.2933
-27.6238
-27.9254
-28.1766
-28.3572
-28.4517
-27.3578
-27.2675
-27.0991
-26.8737
-26.6147
-26.343
-26.0744
-25.8185
-25.5803
-25.3616
-25.1625
-24.983
-24.8229
-24.6817
-24.5581
-24.4505
-24.357
-24.2753
-24.2035
-24.1402
-24.0843
-24.035
-23.9921
-23.955
-23.9234
-23.8968
-23.8748
-23.8569
-23.8429
-23.8327
-23.8261
-23.8232
-23.824
-23.8285
-23.8368
-23.8488
-23.8648
-23.8851
-23.9101
-23.9404
-23.9771
-24.0211
-24.0737
-24.1359
-24.2088
-24.2938
-24.3921
-24.5057
-24.6372
-24.7897
-24.9661
-25.169
-25.4003
-25.6609
-25.9508
-26.2693
-26.6144
-26.9813
-27.3599
-27.7333
-28.0784
-28.3689
-28.579
-28.6893
-27.5575
-27.4489
-27.2482
-26.9834
-26.6847
-26.3779
-26.0808
-25.8035
-25.5498
-25.32
-25.1128
-24.9278
-24.7644
-24.6219
-24.4988
-24.393
-24.3022
-24.2234
-24.1545
-24.0937
-24.0399
-23.9925
-23.9512
-23.9157
-23.8856
-23.8604
-23.8395
-23.8224
-23.809
-23.7991
-23.7926
-23.7895
-23.7899
-23.7938
-23.8011
-23.8119
-23.8263
-23.8445
-23.8669
-23.8943
-23.9276
-23.9681
-24.0169
-24.0754
-24.1445
-24.2254
-24.3196
-24.429
-24.5567
-24.7066
-24.8823
-25.0872
-25.3238
-25.5934
-25.8965
-26.2334
-26.6037
-27.0042
-27.4249
-27.847
-28.2428
-28.5794
-28.8244
-28.9533
-27.7815
-27.6504
-27.4102
-27.0982
-26.7538
-26.4078
-26.0804
-25.7814
-25.5128
-25.2726
-25.058
-24.8678
-24.7014
-24.5581
-24.436
-24.3329
-24.2453
-24.1701
-24.1044
-24.0464
-23.9948
-23.9493
-23.9097
-23.8758
-23.8473
-23.8235
-23.8038
-23.7876
-23.7748
-23.7652
-23.7587
-23.7555
-23.7555
-23.7587
-23.7652
-23.7748
-23.7876
-23.8036
-23.8234
-23.8476
-23.8774
-23.914
-23.959
-24.0135
-24.0786
-24.1553
-24.2449
-24.3494
-24.4723
-24.6184
-24.7925
-24.9986
-25.2398
-25.5179
-25.8337
-26.1883
-26.5837
-27.0193
-27.4862
-27.9634
-28.4178
-28.8086
-29.0945
-29.2451
-28.0324
-27.8734
-27.5849
-27.2169
-26.8199
-26.4308
-26.0715
-25.7512
-25.469
-25.2196
-24.9982
-24.8031
-24.6342
-24.4905
-24.3702
-24.2703
-24.1869
-24.1159
-24.0538
-23.9986
-23.9494
-23.9056
-23.8676
-23.8355
-23.8087
-23.7865
-23.768
-23.7528
-23.7405
-23.7312
-23.7247
-23.7213
-23.721
-23.7237
-23.7293
-23.7378
-23.7489
-23.7628
-23.7799
-23.8007
-23.8267
-23.8593
-23.9002
-23.9506
-24.0117
-24.0841
-24.1686
-24.2674
-24.3844
-24.5257
-24.6971
-24.9035
-25.1486
-25.4346
-25.7621
-26.1332
-26.5529
-27.0245
-27.5416
-28.0809
-28.6029
-29.057
-29.3907
-29.5662
-28.3129
-28.1198
-27.7723
-27.3376
-26.8807
-26.4448
-26.0527
-25.7121
-25.4182
-25.1612
-24.9337
-24.734
-24.5629
-24.4194
-24.3014
-24.2057
-24.1273
-24.0611
-24.003
-23.9509
-23.9039
-23.8619
-23.8254
-23.7949
-23.77
-23.7495
-23.7323
-23.7181
-23.7064
-23.6973
-23.6908
-23.6872
-23.6865
-23.6887
-23.6937
-23.701
-23.7106
-23.7224
-23.7366
-23.754
-23.7759
-23.8043
-23.841
-23.8873
-23.9441
-24.0122
-24.0915
-24.1837
-24.2936
-24.4286
-24.5962
-24.802
-25.0503
-25.3437
-25.682
-26.0675
-26.5096
-27.0175
-27.5886
-28.1974
-28.797
-29.3253
-29.7143
-29.9183
-28.6265
-28.3915
-27.9718
-27.4579
-26.9338
-26.4475
-26.0222
-25.6634
-25.3605
-25.098
-24.865
-24.6607
-24.4877
-24.3449
-24.2299
-24.1393
-24.067
-24.0064
-23.9525
-23.9035
-23.8587
-23.8182
-23.783
-23.7543
-23.7314
-23.7127
-23.697
-23.6837
-23.6726
-23.6637
-23.6572
-23.6534
-23.6524
-23.6541
-23.6584
-23.6648
-23.6729
-23.6826
-23.694
-23.7077
-23.7253
-23.7491
-23.7815
-23.8236
-23.8764
-23.9403
-24.0142
-24.0989
-24.2004
-24.3277
-24.4903
-24.6945
-24.9453
-25.2458
-25.5937
-25.9909
-26.4524
-26.9956
-27.6244
-28.3107
-28.9992
-29.6145
-30.0673
-30.3029
-28.9767
-28.6909
-28.1827
-27.575
-26.9761
-26.4367
-25.9784
-25.6044
-25.2962
-25.0309
-24.7928
-24.5835
-24.4088
-24.2672
-24.1559
-24.0715
-24.0063
-23.9521
-23.9028
-23.8568
-23.8141
-23.7747
-23.7406
-23.7137
-23.693
-23.6765
-23.6622
-23.6498
-23.6393
-23.6306
-23.624
-23.62
-23.6186
-23.62
-23.6238
-23.6293
-23.636
-23.6437
-23.6522
-23.662
-23.675
-23.6941
-23.722
-23.7599
-23.8088
-23.8689
-23.9374
-24.0137
-24.1051
-24.2231
-24.3796
-24.5811
-24.8336
-25.1415
-25.4984
-25.9034
-26.3797
-26.9559
-27.6459
-28.4183
-29.2082
-29.9258
-30.4514
-30.7212
-29.3678
-29.0207
-28.4039
-27.685
-27.0047
-26.4101
-25.9196
-25.5347
-25.2258
-24.9609
-24.7176
-24.5024
-24.3265
-24.1865
-24.0794
-24.0024
-23.9456
-23.8987
-23.854
-23.811
-23.7704
-23.7316
-23.6982
-23.6732
-23.655
-23.6408
-23.6281
-23.6166
-23.6067
-23.598
-23.5912
-23.5869
-23.5853
-23.5864
-23.5898
-23.5947
-23.6
-23.6058
-23.6116
-23.6172
-23.6252
-23.6392
-23.6627
-23.6964
-23.7414
-23.7984
-23.862
-23.9289
-24.0084
-24.1151
-24.2644
-24.4623
-24.7155
-25.0318
-25.3972
-25.8054
-26.2902
-26.8953
-27.65
-28.5176
-29.4222
-30.2612
-30.8689
-31.1743
-29.8041
-29.3845
-28.6338
-27.7832
-27.0163
-26.3657
-25.844
-25.454
-25.1503
-24.8897
-24.6404
-24.4174
-24.241
-24.103
-24.0003
-23.9323
-23.8854
-23.8469
-23.8067
-23.7664
-23.7278
-23.6891
-23.6557
-23.6328
-23.6176
-23.6061
-23.5948
-23.5841
-23.5747
-23.566
-23.5589
-23.5544
-23.5526
-23.5533
-23.5566
-23.561
-23.5651
-23.5692
-23.5722
-23.5735
-23.5761
-23.5846
-23.6036
-23.6332
-23.6743
-23.7294
-23.7888
-23.845
-23.9105
-24.0036
-24.145
-24.3382
-24.5909
-24.9176
-25.2924
-25.6975
-26.1826
-26.8101
-27.6334
-28.6058
-29.6384
-30.6235
-31.3224
-31.6625
-30.2904
-29.7867
-28.87
-27.8631
-27.0081
-26.3017
-25.7498
-25.3623
-25.0707
-24.8194
-24.5618
-24.328
-24.1525
-24.017
-23.9186
-23.8614
-23.826
-23.7972
-23.7611
-23.723
-23.6867
-23.647
-23.6129
-23.5925
-23.5807
-23.5723
-23.5623
-23.5524
-23.5436
-23.5347
-23.5272
-23.5224
-23.5203
-23.5209
-23.5242
-23.5283
-23.5312
-23.5338
-23.5345
-23.531
-23.5277
-23.5301
-23.545
-23.5705
-23.6075
-23.6623
-23.719
-23.7628
-23.812
-23.8887
-24.0219
-24.2094
-24.4591
-24.8
-25.1868
-25.5807
-26.0559
-26.6962
-27.5927
-28.6799
-29.8529
-31.0168
-31.8152
-32.1854
-30.8313
-30.2334
-29.1095
-27.9166
-26.9777
-26.2169
-25.6347
-25.2599
-24.9881
-24.7527
-24.4827
-24.2335
-24.0615
-23.9287
-23.8339
-23.7899
-23.7679
-23.7505
-23.7174
-23.6809
-23.6475
-23.6056
-23.5695
-23.5522
-23.5445
-23.5399
-23.5309
-23.5214
-23.5135
-23.5042
-23.496
-23.491
-23.4887
-23.489
-23.4927
-23.4969
-23.4984
-23.4999
-23.4986
-23.4898
-23.4802
-23.4758
-23.4869
-23.5083
-23.5404
-23.5974
-23.6537
-23.683
-23.7132
-23.77
-23.8957
-24.0765
-24.3191
-24.6804
-25.0843
-25.4565
-25.9095
-26.5485
-27.5249
-28.7378
-30.0595
-31.4478
-32.3507
-32.7413
-31.4309
-30.7327
-29.348
-27.9327
-26.9239
-26.111
-25.4958
-25.1474
-24.9038
-24.6934
-24.4039
-24.1322
-23.9687
-23.8388
-23.7457
-23.7182
-23.7112
-23.7075
-23.6756
-23.6399
-23.6107
-23.5648
-23.5251
-23.512
-23.5091
-23.5091
-23.5006
-23.4912
-23.4845
-23.4744
-23.4653
-23.4603
-23.4577
-23.4577
-23.462
-23.4669
-23.4667
-23.4674
-23.4649
-23.4503
-23.4337
-23.4213
-23.4295
-23.447
-23.4726
-23.5352
-23.5946
-23.6063
-23.6146
-23.6466
-23.7669
-23.9405
-24.1685
-24.5597
-24.9903
-25.3263
-25.7436
-26.3605
-27.4272
-28.7779
-30.2479
-31.9265
-32.9334
-33.3267
-32.0923
-31.2964
-29.5799
-27.8971
-26.8475
-25.9846
-25.3293
-25.0264
-24.8187
-24.6463
-24.326
-24.0215
-23.8754
-23.7478
-23.6527
-23.6467
-23.6564
-23.6697
-23.6359
-23.5995
-23.5774
-23.5247
-23.479
-23.4719
-23.4745
-23.4804
-23.4714
-23.4617
-23.4568
-23.4455
-23.4352
-23.4302
-23.4274
-23.4268
-23.4324
-23.4384
-23.4359
-23.4365
-23.4339
-23.4123
-23.3884
-23.3662
-23.3731
-23.387
-23.4027
-23.4757
-23.5437
-23.533
-23.5171
-23.5172
-23.6368
-23.8032
-24.0037
-24.4391
-24.9119
-25.1912
-25.5595
-26.1241
-27.2978
-28.801
-30.402
-32.4686
-33.5678
-33.9363
-32.8166
-31.9413
-29.7979
-27.7904
-26.7526
-25.8395
-25.1293
-24.8994
-24.7332
-24.6179
-24.2496
-23.8972
-23.7838
-23.6568
-23.5533
-23.5763
-23.6033
-23.6387
-23.598
-23.5591
-23.5487
-23.4853
-23.4301
-23.4322
-23.4408
-23.4543
-23.4433
-23.4327
-23.4309
-23.4175
-23.4055
-23.4009
-23.3978
-23.3963
-23.4037
-23.4119
-23.4058
-23.407
-23.4062
-23.376
-23.3445
-23.31
-23.3182
-23.3292
-23.329
-23.4191
-23.5038
-23.4633
-23.4218
-23.3794
-23.5067
-23.6678
-23.8189
-24.3192
-24.8588
-25.0516
-25.3605
-25.8277
-27.1359
-28.8116
-30.4962
-33.0979
-34.2587
-34.562
-33.6016
-32.6913
-29.9921
-27.5866
-26.6483
-25.6791
-24.8875
-24.7709
-24.6459
-24.6171
-24.1746
-23.7532
-23.6973
-23.5671
-23.4448
-23.5083
-23.5515
-23.6168
-23.5615
-23.5172
-23.5267
-23.4466
-23.3773
-23.3933
-23.4079
-23.4318
-23.4161
-23.4038
-23.407
-23.3903
-23.3761
-23.3725
-23.3692
-23.366
-23.376
-23.3879
-23.376
-23.3788
-23.3826
-23.3412
-23.3027
-23.2516
-23.2651
-23.2748
-23.2489
-23.3654
-23.4785
-23.3965
-23.3304
-23.2297
-23.3785
-23.5389
-23.6054
-24.2003
-24.8441
-24.9058
-25.1532
-25.4559
-26.9421
-28.8204
-30.4905
-33.8508
-35.0098
-35.1926
-34.4404
-33.5802
-30.1497
-27.251
-26.551
-25.5084
-24.5913
-24.6486
-24.5532
-24.6559
-24.1007
-23.5803
-23.6215
-23.4803
-23.323
-23.4451
-23.4996
-23.6072
-23.5252
-23.4719
-23.514
-23.4083
-23.3183
-23.3561
-23.3753
-23.4139
-23.3896
-23.3744
-23.386
-23.3639
-23.3468
-23.3451
-23.3417
-23.3356
-23.3491
-23.367
-23.346
-23.3516
-23.3641
-23.3075
-23.2636
-23.1893
-23.2145
-23.226
-23.1585
-23.3143
-23.4729
-23.331
-23.2461
-23.0624
-23.2545
-23.4244
-23.3505
-24.0817
-24.8856
-24.7486
-24.9492
-24.9866
-26.7188
-28.8482
-30.3236
-34.7818
-35.8224
-35.8135
-35.3187
-34.656
-30.2538
-26.7371
-26.4873
-25.3339
-24.2224
-24.5446
-24.4471
-24.7504
-24.0269
-23.3655
-23.5648
-23.3985
-23.182
-23.3903
-23.4453
-23.6146
-23.488
-23.42
-23.5147
-23.3701
-23.2505
-23.322
-23.3423
-23.4021
-23.3634
-23.3439
-23.3686
-23.338
-23.3172
-23.3189
-23.3153
-23.3047
-23.3228
-23.3502
-23.3148
-23.3247
-23.3523
-23.274
-23.2288
-23.1208
-23.1671
-23.186
-23.0523
-23.2649
-23.4937
-23.2633
-23.174
-22.8694
-23.1377
-23.336
-23.0359
-23.9618
-25.0076
-24.5685
-24.7679
-24.3888
-26.4701
-28.9314
-29.9031
-35.9715
-36.6922
-36.407
-36.2127
-35.985
-30.2824
-25.9834
-26.4982
-25.1632
-23.7545
-24.4784
-24.3135
-24.9231
-23.9512
-23.091
-23.5395
-23.3241
-23.0128
-23.3499
-23.384
-23.6451
-23.4474
-23.3572
-23.5342
-23.3314
-23.1702
-23.2931
-23.3074
-23.3985
-23.3365
-23.3109
-23.3561
-23.3123
-23.2869
-23.2941
-23.2905
-23.2725
-23.2967
-23.339
-23.2811
-23.2975
-23.3494
-23.2391
-23.2003
-23.0428
-23.1237
-23.1598
-22.9228
-23.2162
-23.5503
-23.1871
-23.1219
-22.6386
-23.0313
-23.2909
-22.6366
-23.8373
-25.2432
-24.3453
-24.6401
-23.6196
-26.2012
-29.1296
-29.0931
-37.5378
-37.6056
-36.952
-37.0853
-37.6577
-30.2067
-24.9094
-26.6433
-25.0051
-23.1504
-24.4797
-24.1291
-25.2039
-23.8704
-22.7322
-23.5635
-23.2597
-22.8032
-23.3331
-23.3086
-23.7077
-23.4005
-23.2773
-23.5805
-23.2911
-23.0722
-23.2732
-23.2681
-23.4059
-23.3078
-23.2739
-23.3505
-23.286
-23.2552
-23.2708
-23.2675
-23.2384
-23.2701
-23.3353
-23.2431
-23.2685
-23.3581
-23.2003
-23.1813
-22.9503
-23.0852
-23.1544
-22.7597
-23.1664
-23.6552
-23.0922
-23.1024
-22.3533
-22.9391
-23.3144
-22.1185
-23.7031
-25.6371
-24.0444
-24.6136
-22.6195
-25.9182
-29.5352
-27.6976
-39.6492
-38.5331
-37.4254
-37.8826
-39.7956
-29.9899
-23.4103
-27.0074
-24.8682
-22.359
-24.593
-23.8572
-25.6337
-23.7798
-22.2568
-23.6623
-23.2082
-22.5363
-23.3539
-23.2079
-23.8146
-23.3432
-23.1721
-23.6643
-23.2475
-22.9501
-23.2676
-23.2207
-23.4286
-23.2758
-23.2309
-23.3543
-23.2584
-23.2215
-23.2496
-23.247
-23.2014
-23.2421
-23.342
-23.1987
-23.2362
-23.3828
-23.1536
-23.1771
-22.8372
-23.0525
-23.18
-22.5498
-23.113
-23.8258
-22.963
-23.1342
-21.9908
-22.8648
-23.4418
-21.4363
-23.5511
-26.2501
-23.6121
-24.7592
-21.3077
-25.6259
-30.2875
-25.4396
-42.5441
-39.421
-37.8038
-38.5288
-42.5592
-29.5847
-21.352
-27.7066
-24.76
-21.3112
-24.8829
-23.4437
-26.2675
-23.673
-21.6225
-23.8707
-23.1723
-22.1898
-23.4327
-23.0656
-23.983
-23.2699
-23.0308
-23.8001
-23.1986
-22.7955
-23.2845
-23.1598
-23.4724
-23.2387
-23.1793
-23.3713
-23.2284
-23.1852
-23.2311
-23.2299
-23.1607
-23.2118
-23.3633
-23.1451
-23.1986
-23.4294
-23.0935
-23.1954
-22.6948
-23.0267
-23.2508
-22.2758
-23.0529
-24.0856
-22.7762
-23.245
-21.5204
-22.8119
-23.7217
-20.531
-23.3701
-27.1636
-22.9673
-25.1795
-19.5765
-25.3252
-31.5884
-21.9355
-46.5523
-40.1797
-38.0665
-38.922
-46.1564
-28.9312
-18.5647
-28.8961
-24.6847
-19.9152
-25.4405
-22.8097
-27.1774
-23.5403
-20.7745
-24.2349
-23.1539
-21.7334
-23.5981
-22.8576
-24.2354
-23.1732
-22.839
-24.0068
-23.1406
-22.5976
-23.335
-23.077
-23.5449
-23.1933
-23.1159
-23.4063
-23.194
-23.1455
-23.216
-23.2174
-23.1149
-23.177
-23.4044
-23.0786
-23.1527
-23.5057
-23.0114
-23.2464
-22.512
-23.008
-23.3857
-21.9154
-22.9809
-24.4654
-22.498
-23.4737
-20.9013
-22.7828
-24.2191
-19.3269
-23.1434
-28.4853
-21.992
-26.0187
-17.2839
-25.0089
-33.7233
-16.664
-52.1226
-40.6686
-38.1988
)
;

boundaryField
{
    left
    {
        type            calculated;
        value           nonuniform List<scalar> 
32
(
-26.3925
-26.412
-26.4495
-26.5039
-26.5746
-26.6615
-26.7648
-26.8851
-27.0232
-27.1803
-27.3578
-27.5575
-27.7815
-28.0324
-28.3129
-28.6265
-28.9767
-29.3678
-29.8041
-30.2904
-30.8313
-31.4309
-32.0923
-32.8166
-33.6016
-34.4404
-35.3187
-36.2127
-37.0853
-37.8826
-38.5288
-38.922
)
;
    }
    right
    {
        type            calculated;
        value           nonuniform List<scalar> 
32
(
-27.3648
-27.3922
-27.4451
-27.5215
-27.6206
-27.7417
-27.8849
-28.0505
-28.2391
-28.4517
-28.6893
-28.9533
-29.2451
-29.5662
-29.9183
-30.3029
-30.7212
-31.1743
-31.6625
-32.1854
-32.7413
-33.3267
-33.9363
-34.562
-35.1926
-35.8135
-36.407
-36.952
-37.4254
-37.8038
-38.0665
-38.1988
)
;
    }
    interface
    {
        type            calculated;
        value           nonuniform List<scalar> 
64
(
-39.0408
-48.1926
-28.5339
-16.9651
-29.6355
-24.6556
-19.1172
-25.7994
-22.426
-27.7116
-23.4661
-20.2895
-24.4626
-23.1492
-21.4735
-23.7066
-22.7336
-24.3858
-23.1179
-22.7284
-24.1304
-23.1087
-22.4862
-23.3701
-23.0289
-23.5893
-23.168
-23.0806
-23.4289
-23.1754
-23.1246
-23.2093
-23.2123
-23.0905
-23.1582
-23.4305
-23.0414
-23.1271
-23.5523
-22.9636
-23.2817
-22.4087
-23.0004
-23.4718
-21.7104
-22.9412
-24.6896
-22.331
-23.6231
-20.5488
-22.7743
-24.5313
-18.6394
-23.0162
-29.2634
-21.4043
-26.564
-15.9772
-24.8451
-35.0408
-13.5116
-55.3627
-40.8244
-38.231
)
;
    }
    bottom
    {
        type            calculated;
        value           nonuniform List<scalar> 
64
(
-26.3875
-26.362
-26.3123
-26.2403
-26.1489
-26.0418
-25.9224
-25.7945
-25.6615
-25.5266
-25.3924
-25.261
-25.1344
-25.0136
-24.8998
-24.7936
-24.6951
-24.6046
-24.522
-24.4472
-24.3798
-24.3197
-24.2664
-24.2198
-24.1795
-24.1452
-24.1167
-24.0939
-24.0765
-24.0645
-24.0578
-24.0564
-24.0603
-24.0697
-24.0848
-24.1057
-24.1328
-24.1664
-24.207
-24.2551
-24.311
-24.3755
-24.4492
-24.5325
-24.6261
-24.7304
-24.846
-24.9731
-25.1118
-25.2619
-25.423
-25.594
-25.7736
-25.9598
-26.15
-26.3408
-26.5285
-26.7085
-26.876
-27.0259
-27.1532
-27.2533
-27.3224
-27.3577
)
;
    }
    defaultFaces
    {
        type            empty;
    }
}


// ************************************************************************* //
