/*--------------------------------*- C++ -*----------------------------------*\
| =========                 |                                                 |
| \\      /  F ield         | OpenFOAM: The Open Source CFD Toolbox           |
|  \\    /   O peration     | Version:  5.x                                   |
|   \\  /    A nd           | Web:      www.OpenFOAM.org                      |
|    \\/     M anipulation  |                                                 |
\*---------------------------------------------------------------------------*/
FoamFile
{
    version     2.0;
    format      ascii;
    class       volScalarField;
    location    "0.5";
    object      T;
}
// * * * * * * * * * * * * * * * * * * * * * * * * * * * * * * * * * * * * * //

dimensions      [0 0 0 1 0 0 0];

internalField   nonuniform List<scalar> 
2048
(
9.81043
9.81061
9.81097
9.81148
9.81214
9.81291
9.81377
9.81469
9.81564
9.81661
9.81757
9.81852
9.81943
9.8203
9.82111
9.82188
9.82258
9.82323
9.82383
9.82436
9.82485
9.82528
9.82566
9.826
9.82629
9.82653
9.82674
9.8269
9.82703
9.82711
9.82716
9.82717
9.82714
9.82708
9.82697
9.82682
9.82662
9.82638
9.82609
9.82575
9.82534
9.82488
9.82435
9.82375
9.82308
9.82233
9.8215
9.82059
9.81959
9.81851
9.81735
9.81613
9.81484
9.8135
9.81213
9.81076
9.80941
9.80812
9.80692
9.80584
9.80492
9.8042
9.80371
9.80346
9.43942
9.43997
9.44104
9.44259
9.44455
9.44685
9.4494
9.45214
9.45498
9.45787
9.46073
9.46353
9.46623
9.4688
9.47122
9.47348
9.47557
9.47749
9.47925
9.48083
9.48226
9.48354
9.48467
9.48566
9.48651
9.48724
9.48784
9.48833
9.48869
9.48895
9.48909
9.48912
9.48904
9.48884
9.48852
9.48808
9.48751
9.48679
9.48593
9.48492
9.48373
9.48237
9.48081
9.47904
9.47705
9.47484
9.47239
9.46969
9.46674
9.46355
9.46012
9.45648
9.45265
9.44868
9.44463
9.44055
9.43654
9.43268
9.4291
9.42588
9.42315
9.421
9.41952
9.41876
9.08426
9.08518
9.08696
9.08954
9.09281
9.09663
9.10087
9.1054
9.1101
9.11485
9.11957
9.12417
9.12861
9.13282
9.13678
9.14048
9.1439
9.14703
9.14989
9.15248
9.15481
9.15689
9.15873
9.16034
9.16173
9.16291
9.16389
9.16468
9.16528
9.1657
9.16593
9.16598
9.16585
9.16553
9.16501
9.16429
9.16336
9.16221
9.16081
9.15916
9.15724
9.15501
9.15248
9.1496
9.14637
9.14276
9.13876
9.13436
9.12954
9.12432
9.11871
9.11274
9.10645
9.09992
9.09324
9.08651
9.07988
9.0735
9.06755
9.06221
9.05766
9.05408
9.05161
9.05035
8.74404
8.74533
8.74786
8.7515
8.7561
8.76147
8.76742
8.77375
8.7803
8.78691
8.79346
8.79983
8.80595
8.81175
8.81721
8.82228
8.82697
8.83127
8.83519
8.83873
8.84191
8.84475
8.84726
8.84945
8.85135
8.85297
8.8543
8.85538
8.8562
8.85677
8.85709
8.85716
8.85698
8.85654
8.85585
8.85487
8.85361
8.85204
8.85015
8.8479
8.84528
8.84225
8.8388
8.83488
8.83047
8.82554
8.82006
8.81403
8.80742
8.80025
8.79253
8.78429
8.77561
8.76657
8.75729
8.74793
8.73868
8.72977
8.72143
8.71393
8.70753
8.70248
8.69899
8.69721
8.41792
8.41962
8.42293
8.42769
8.43369
8.44066
8.44836
8.45653
8.46495
8.47341
8.48177
8.48988
8.49766
8.50501
8.51191
8.51831
8.52422
8.52963
8.53454
8.53899
8.54298
8.54653
8.54968
8.55243
8.5548
8.55682
8.55849
8.55984
8.56087
8.56158
8.56198
8.56207
8.56185
8.56131
8.56045
8.55924
8.55767
8.55572
8.55336
8.55056
8.54729
8.54352
8.5392
8.5343
8.52877
8.52259
8.51572
8.50813
8.49981
8.49076
8.48099
8.47056
8.45952
8.448
8.43614
8.42415
8.41226
8.40075
8.38996
8.38023
8.37191
8.36533
8.36076
8.35843
8.10515
8.10728
8.11143
8.11739
8.12486
8.13352
8.14304
8.1531
8.16342
8.17376
8.18392
8.19376
8.20316
8.21202
8.22032
8.228
8.23507
8.24153
8.2474
8.2527
8.25745
8.26168
8.26542
8.26868
8.27151
8.2739
8.27589
8.27749
8.27871
8.27956
8.28004
8.28016
8.2799
8.27927
8.27825
8.27683
8.27498
8.27267
8.26989
8.26658
8.26271
8.25824
8.25312
8.2473
8.24073
8.23337
8.22518
8.21611
8.20615
8.19529
8.18355
8.17095
8.1576
8.14362
8.12919
8.11453
8.09994
8.08578
8.07244
8.06037
8.05001
8.0418
8.0361
8.03318
7.80498
7.80759
7.81267
7.81992
7.82898
7.83943
7.85085
7.86287
7.87513
7.88737
7.89935
7.9109
7.92189
7.93223
7.94188
7.95079
7.95897
7.96643
7.9732
7.9793
7.98476
7.98963
7.99392
7.99768
8.00092
8.00367
8.00595
8.00779
8.00919
8.01016
8.01072
8.01086
8.01057
8.00986
8.0087
8.00708
8.00498
8.00235
7.99918
7.9954
7.99099
7.98587
7.98001
7.97333
7.96579
7.95733
7.94789
7.93742
7.9259
7.9133
7.89963
7.88493
7.8693
7.85287
7.83584
7.81848
7.80113
7.78421
7.7682
7.75365
7.74113
7.73116
7.72422
7.72066
7.51674
7.51989
7.52598
7.53465
7.54543
7.55779
7.57123
7.58528
7.59954
7.6137
7.6275
7.64075
7.65332
7.6651
7.67605
7.68614
7.69538
7.70379
7.7114
7.71826
7.72439
7.72985
7.73466
7.73886
7.74249
7.74557
7.74813
7.75018
7.75175
7.75285
7.75348
7.75364
7.75333
7.75254
7.75126
7.74947
7.74713
7.74422
7.74069
7.73649
7.73158
7.72588
7.71933
7.71186
7.70342
7.69392
7.68331
7.67152
7.6585
7.64423
7.62871
7.61196
7.59407
7.5752
7.55556
7.53545
7.51525
7.49545
7.47663
7.45944
7.44457
7.4327
7.42442
7.42016
7.23978
7.24353
7.25076
7.261
7.27365
7.28807
7.30364
7.31981
7.33613
7.35224
7.36786
7.38281
7.39692
7.4101
7.42231
7.43353
7.44377
7.45308
7.46148
7.46904
7.4758
7.4818
7.4871
7.49172
7.49571
7.49909
7.5019
7.50416
7.50588
7.50709
7.50779
7.50798
7.50765
7.5068
7.50541
7.50346
7.50092
7.49775
7.4939
7.48933
7.48396
7.47772
7.47055
7.46236
7.45308
7.44262
7.43091
7.41788
7.40345
7.38758
7.37026
7.3515
7.3314
7.3101
7.28782
7.26491
7.24177
7.21897
7.19717
7.17714
7.15973
7.14578
7.13601
7.13098
6.97349
6.97791
6.98642
6.9984
7.01311
7.02975
7.04758
7.06596
7.08439
7.10248
7.11994
7.13656
7.15219
7.16674
7.18016
7.19245
7.20364
7.21378
7.22293
7.23114
7.23848
7.24499
7.25073
7.25574
7.26006
7.26372
7.26676
7.26921
7.27108
7.27239
7.27316
7.27337
7.27303
7.27213
7.27064
7.26856
7.26583
7.26244
7.25831
7.25339
7.24761
7.2409
7.23316
7.22431
7.21425
7.20291
7.19018
7.17598
7.16022
7.14283
7.12378
7.10307
7.08078
7.05706
7.03214
7.00636
6.98019
6.95424
6.92927
6.90619
6.88602
6.86977
6.85836
6.85247
6.71728
6.72247
6.73242
6.74636
6.76333
6.78236
6.80259
6.82327
6.84387
6.86396
6.88325
6.90153
6.91865
6.93451
6.9491
6.96241
6.97449
6.98541
6.99524
7.00406
7.01194
7.01892
7.02508
7.03044
7.03506
7.03898
7.04223
7.04485
7.04686
7.04827
7.04909
7.04933
7.04898
7.04803
7.04647
7.04426
7.04138
7.03778
7.03341
7.02819
7.02205
7.01491
7.00666
6.99721
6.98645
6.97429
6.96062
6.94533
6.92832
6.90949
6.88878
6.86617
6.84173
6.81561
6.78802
6.75934
6.73005
6.70081
6.67247
6.64609
6.6229
6.60412
6.59088
6.58404
6.47058
6.47666
6.48825
6.50437
6.52384
6.54546
6.56822
6.5913
6.61411
6.63622
6.65734
6.67725
6.69582
6.71297
6.72866
6.74293
6.75585
6.76749
6.77795
6.78733
6.7957
6.80312
6.80965
6.81534
6.82024
6.82439
6.82784
6.83061
6.83274
6.83424
6.83512
6.83539
6.83504
6.83405
6.83241
6.83011
6.82709
6.82332
6.81873
6.81325
6.8068
6.79927
6.79057
6.78057
6.76918
6.75627
6.74174
6.72544
6.70726
6.68707
6.66478
6.64034
6.6138
6.58529
6.55504
6.52341
6.49091
6.45822
6.42629
6.39636
6.36985
6.34827
6.33301
6.32509
6.23285
6.23995
6.25342
6.272
6.29422
6.31864
6.34408
6.36964
6.39469
6.41882
6.44175
6.46328
6.48327
6.50164
6.51839
6.53356
6.54724
6.55955
6.57059
6.58048
6.5893
6.59712
6.604
6.60999
6.61514
6.6195
6.62312
6.62604
6.62828
6.62987
6.6308
6.6311
6.63074
6.62972
6.62803
6.62563
6.6225
6.61858
6.61381
6.60811
6.60139
6.59353
6.58442
6.57394
6.56197
6.54839
6.53306
6.51585
6.49659
6.47512
6.45132
6.42512
6.39652
6.36565
6.33275
6.29815
6.26235
6.22607
6.19034
6.15656
6.12641
6.10173
6.08419
6.07509
6.00357
6.01185
6.02748
6.04883
6.07408
6.10151
6.12977
6.15788
6.1852
6.21134
6.23607
6.25918
6.28055
6.3001
6.31785
6.33385
6.34824
6.36114
6.37271
6.38307
6.3923
6.40049
6.40769
6.41395
6.41932
6.42388
6.42765
6.4307
6.43305
6.43471
6.4357
6.43602
6.43567
6.43462
6.43288
6.43041
6.42718
6.42314
6.41822
6.41233
6.40538
6.39724
6.38777
6.37686
6.36437
6.35017
6.33413
6.31608
6.29583
6.27319
6.24796
6.22006
6.18946
6.15628
6.12073
6.08314
6.04399
6.00399
5.96422
5.92628
5.89214
5.864
5.84394
5.8335
5.78224
5.79189
5.80999
5.83448
5.86307
5.89374
5.92495
5.95565
5.98524
6.01338
6.03987
6.06453
6.08723
6.10792
6.1266
6.14338
6.1584
6.17185
6.18389
6.19466
6.20428
6.2128
6.22029
6.2268
6.23238
6.2371
6.24102
6.24418
6.24662
6.24835
6.2494
6.24974
6.24939
6.24833
6.24655
6.24401
6.2407
6.23656
6.23152
6.22548
6.21834
6.20996
6.20019
6.1889
6.17594
6.16119
6.14451
6.12571
6.10456
6.08083
6.05427
6.02474
5.99221
5.95675
5.91858
5.87801
5.83547
5.79162
5.74759
5.70515
5.66662
5.63465
5.61176
5.59983
5.56837
5.57961
5.60056
5.62859
5.66085
5.69498
5.72926
5.7626
5.79443
5.82452
5.85275
5.87893
5.90293
5.92469
5.94425
5.96172
5.97731
5.99124
6.0037
6.01486
6.02482
6.03365
6.04141
6.04814
6.0539
6.05877
6.06281
6.06607
6.0686
6.0704
6.07149
6.07187
6.07152
6.07045
6.06863
6.06605
6.06267
6.05844
6.0533
6.04715
6.03986
6.03128
6.02125
6.00963
5.99626
5.98102
5.96376
5.94429
5.92235
5.89762
5.86982
5.83876
5.80435
5.76665
5.7259
5.68239
5.63645
5.58864
5.54011
5.49282
5.44948
5.41323
5.38719
5.37362
5.36147
5.37456
5.39882
5.43085
5.46713
5.50494
5.54239
5.57837
5.61241
5.6444
5.67432
5.70199
5.72723
5.75002
5.77039
5.7885
5.80458
5.81892
5.83176
5.84326
5.85353
5.86265
5.87065
5.87758
5.8835
5.8885
5.89265
5.896
5.89861
5.90047
5.90161
5.90201
5.90168
5.90059
5.89874
5.89612
5.89269
5.8884
5.88319
5.87695
5.86955
5.86082
5.85057
5.83866
5.82493
5.80924
5.79147
5.77142
5.74878
5.72317
5.69423
5.6617
5.62548
5.5856
5.54231
5.49591
5.44659
5.39476
5.34149
5.28898
5.24035
5.19934
5.16981
5.15442
5.16108
5.17633
5.20441
5.24096
5.28163
5.32333
5.36405
5.40264
5.43881
5.47263
5.5042
5.53333
5.55978
5.58353
5.60465
5.62332
5.63983
5.65452
5.66767
5.67948
5.69003
5.69942
5.70766
5.71477
5.72082
5.72592
5.73016
5.7336
5.73628
5.7382
5.73938
5.73982
5.73949
5.7384
5.73652
5.73386
5.73039
5.72606
5.7208
5.71451
5.70703
5.69818
5.68776
5.6756
5.66155
5.64546
5.62724
5.6067
5.58347
5.55708
5.52708
5.49318
5.45522
5.4132
5.36743
5.31823
5.26559
5.20969
5.15147
5.09333
5.03891
4.99259
4.95918
4.94182
4.96674
4.98449
5.01702
5.05869
5.10411
5.1499
5.19395
5.23509
5.27328
5.30884
5.34203
5.37259
5.4002
5.42486
5.44668
5.46582
5.48267
5.49764
5.51108
5.52316
5.53397
5.54361
5.55207
5.55934
5.5655
5.57069
5.57501
5.57852
5.58126
5.58324
5.58447
5.58493
5.58461
5.58351
5.58162
5.57893
5.57542
5.57106
5.56577
5.55946
5.55195
5.54303
5.53246
5.5201
5.50576
5.48931
5.47068
5.44973
5.42602
5.39898
5.36802
5.33283
5.29321
5.24908
5.20088
5.14899
5.09316
5.03319
4.96979
4.90563
4.84486
4.79259
4.7549
4.73542
4.77801
4.79864
4.83635
4.88382
4.93433
4.98439
5.03181
5.07542
5.11549
5.15266
5.18743
5.21943
5.24814
5.27367
5.29612
5.31566
5.33277
5.34795
5.36163
5.37395
5.385
5.39489
5.40356
5.41096
5.41721
5.42246
5.42684
5.43042
5.43321
5.43525
5.43653
5.43702
5.43672
5.43561
5.4337
5.43098
5.42745
5.42307
5.41777
5.41146
5.40395
5.39499
5.38433
5.37179
5.35721
5.34041
5.32142
5.30015
5.27608
5.2485
5.21668
5.18029
5.13908
5.09286
5.04228
4.98787
4.929
4.86503
4.79623
4.72561
4.65793
4.59897
4.55659
4.53487
4.59445
4.61838
4.66215
4.71618
4.7721
4.82656
4.87739
4.9233
4.96508
5.00373
5.04008
5.07351
5.10328
5.12961
5.15264
5.17249
5.18977
5.2051
5.21898
5.23153
5.24279
5.25292
5.26179
5.26931
5.27562
5.28091
5.28535
5.28899
5.29183
5.29392
5.29525
5.29577
5.29548
5.29437
5.29243
5.28969
5.28615
5.28175
5.27646
5.27019
5.26272
5.25376
5.24302
5.23034
5.21555
5.19842
5.17909
5.1576
5.13329
5.1053
5.0727
5.03521
4.99251
4.94419
4.89125
4.83452
4.77283
4.705
4.63059
4.55308
4.4779
4.41136
4.36387
4.33984
4.41565
4.4433
4.49419
4.55566
4.6172
4.67619
4.73045
4.77846
4.82173
4.86168
4.89962
4.93454
4.96528
4.99237
5.01593
5.03599
5.05336
5.06875
5.08282
5.09557
5.10702
5.11739
5.12648
5.13409
5.14043
5.14573
5.15023
5.15392
5.1568
5.15895
5.16032
5.16087
5.16059
5.15949
5.15753
5.15476
5.15122
5.14681
5.14153
5.13533
5.12793
5.11902
5.10822
5.09543
5.08047
5.06301
5.04335
5.02174
4.99731
4.96906
4.93576
4.89725
4.85319
4.80272
4.74739
4.6886
4.6244
4.55292
4.47266
4.3878
4.3046
4.22936
4.17637
4.15006
4.24121
4.27297
4.33228
4.40218
4.46943
4.53303
4.59077
4.6406
4.68512
4.72614
4.76574
4.80222
4.83383
4.86162
4.8857
4.90586
4.92322
4.93859
4.95283
4.96578
4.97737
4.98802
4.99734
5.005
5.01135
5.01663
5.02117
5.02491
5.02783
5.03004
5.03146
5.03204
5.03178
5.03067
5.02869
5.02589
5.02235
5.01795
5.01268
5.00658
4.99929
4.99047
4.97964
4.96676
4.95168
4.93385
4.91385
4.89223
4.86782
4.83947
4.80552
4.76607
4.72081
4.6681
4.61031
4.5498
4.48342
4.40865
4.32226
4.22958
4.1379
4.05253
3.99374
3.96528
4.07075
4.10695
4.17625
4.25577
4.32859
4.39685
4.45815
4.50943
4.55493
4.59674
4.63812
4.67631
4.70862
4.73708
4.76166
4.78179
4.79906
4.81431
4.82874
4.84188
4.85356
4.86451
4.87409
4.88177
4.88808
4.89333
4.89792
4.90171
4.90465
4.90692
4.9084
4.909
4.90876
4.90765
4.90564
4.9028
4.89929
4.89488
4.88962
4.88365
4.87651
4.86784
4.85697
4.84402
4.82889
4.81064
4.79026
4.76876
4.7445
4.71624
4.68166
4.64136
4.59514
4.54
4.47959
4.41779
4.34962
4.27207
4.1792
4.0782
3.97781
3.8804
3.81561
3.78533
3.90396
3.94471
4.02599
4.1165
4.19442
4.2674
4.33243
4.38464
4.43087
4.47308
4.51646
4.55656
4.58934
4.61843
4.64357
4.6635
4.68059
4.6956
4.71025
4.7236
4.7353
4.7466
4.75648
4.76413
4.77038
4.77553
4.78019
4.78404
4.78697
4.78932
4.79086
4.79149
4.79126
4.79017
4.78811
4.78523
4.78175
4.77733
4.77207
4.76628
4.75932
4.75085
4.73993
4.72694
4.71186
4.69311
4.67225
4.65103
4.62705
4.59912
4.56387
4.52277
4.47594
4.4181
4.35478
4.29227
4.22271
4.14311
4.0433
3.93341
3.82443
3.71238
3.64166
3.61008
3.74054
3.78568
3.88145
3.98457
4.06663
4.14441
4.21348
4.26592
4.31266
4.35476
4.40048
4.4428
4.47567
4.50541
4.53119
4.5507
4.56755
4.58216
4.59713
4.6107
4.6223
4.63403
4.64429
4.65181
4.65798
4.66299
4.66774
4.67165
4.67456
4.67699
4.67861
4.67925
4.67904
4.67797
4.67585
4.6729
4.6695
4.66506
4.65977
4.6542
4.64744
4.63927
4.62827
4.61523
4.60035
4.58096
4.55947
4.53877
4.51516
4.48788
4.45184
4.40996
4.36307
4.3021
4.23538
4.17295
4.10235
4.02179
3.91434
3.7949
3.67808
3.54774
3.47155
3.43946
3.58031
3.62916
3.7426
3.86029
3.94483
4.0276
4.10123
4.15293
4.20006
4.24132
4.28991
4.33488
4.36729
4.39771
4.42432
4.44311
4.45969
4.47369
4.48911
4.50296
4.51427
4.52655
4.53728
4.54458
4.55065
4.55544
4.56032
4.56431
4.56714
4.56969
4.5714
4.57204
4.57185
4.57081
4.56863
4.56558
4.5623
4.55783
4.55245
4.54718
4.54063
4.53287
4.52171
4.50861
4.49416
4.47395
4.4516
4.43172
4.40853
4.38232
4.34526
4.30257
4.25642
4.19172
4.12086
4.05961
3.98816
3.90819
3.79211
3.66225
3.53936
3.38554
3.30502
3.27349
3.42316
3.47428
3.60951
3.74417
3.82853
3.91667
3.9957
4.04528
4.09289
4.13229
4.18449
4.23274
4.26384
4.29507
4.32279
4.34044
4.35679
4.36989
4.38599
4.40018
4.41093
4.42395
4.43528
4.44217
4.44816
4.45263
4.45772
4.46181
4.4645
4.4672
4.46901
4.46963
4.46946
4.46848
4.4662
4.46301
4.45992
4.4554
4.44986
4.44499
4.43864
4.43143
4.42002
4.40681
4.39312
4.37183
4.34829
4.32965
4.30684
4.28229
4.24384
4.20019
4.15597
4.0867
4.0106
3.95209
3.8797
3.8025
3.67638
3.53485
3.40923
3.22453
3.14182
3.11226
3.26912
3.31998
3.4823
3.63686
3.71706
3.81129
3.897
3.94251
3.99105
4.02711
4.08402
4.13637
4.16495
4.19722
4.22649
4.24239
4.25868
4.27045
4.28756
4.30218
4.31198
4.326
4.33811
4.34435
4.3503
4.35431
4.35972
4.36393
4.36638
4.36931
4.37123
4.37181
4.37164
4.37076
4.36837
4.36496
4.36217
4.35756
4.35174
4.34742
4.34121
4.33479
4.32294
4.30953
4.29711
4.27438
4.24918
4.2324
4.20977
4.1877
4.14728
4.10236
4.0618
3.9868
3.9039
3.85032
3.77635
3.70507
3.56687
3.41188
3.28918
3.06305
2.98186
2.95591
3.1184
3.16492
3.3612
3.5393
3.60955
3.71111
3.80535
3.84406
3.89454
3.92515
3.98828
4.04585
4.07016
4.10388
4.13533
4.14864
4.16519
4.17502
4.19364
4.20883
4.21711
4.2325
4.24562
4.25087
4.2569
4.26024
4.26613
4.2705
4.27256
4.27579
4.27786
4.27835
4.2782
4.27746
4.27492
4.2712
4.26886
4.26413
4.25786
4.25429
4.24809
4.24278
4.23026
4.21648
4.20603
4.1814
4.15386
4.13983
4.11694
4.09852
4.05528
4.00855
3.9741
3.89185
3.79992
3.75442
3.67738
3.61646
3.46331
3.29213
3.1814
2.89885
2.82517
2.80467
2.97141
3.00739
3.24654
3.4527
3.50482
3.6158
3.72117
3.74922
3.8035
3.82566
3.89709
3.96138
3.97897
4.01479
4.04932
4.05883
4.07624
4.08327
4.10407
4.12003
4.12598
4.14326
4.1577
4.16146
4.16777
4.17016
4.17676
4.18133
4.18281
4.18648
4.1887
4.18906
4.18891
4.18839
4.18568
4.18148
4.17982
4.17492
4.16795
4.16542
4.15903
4.15527
4.14174
4.12733
4.11984
4.0927
4.06191
4.05189
4.02793
4.01481
3.96755
3.91812
3.89323
3.80167
3.69763
3.66468
3.58176
3.53746
3.36541
3.1739
3.08897
2.72893
2.67207
2.65879
2.82884
2.84528
3.13878
3.37861
3.40136
3.525
3.64506
3.65706
3.71828
3.72777
3.81033
3.88326
3.89076
3.9297
3.96851
3.97252
3.9918
3.99477
4.01872
4.03571
4.03822
4.05812
4.07426
4.07585
4.08281
4.08381
4.09145
4.09626
4.09689
4.10119
4.10358
4.10373
4.10359
4.10337
4.10045
4.09559
4.09489
4.08975
4.08175
4.0807
4.07374
4.07217
4.05717
4.04173
4.03856
4.00812
3.97285
3.96861
3.94223
3.93671
3.88381
3.83028
3.81969
3.71617
3.59583
3.58172
3.48816
3.46915
3.27292
3.05483
3.01616
2.54932
2.52321
2.51855
)
;

boundaryField
{
    left
    {
        type            zeroGradient;
    }
    right
    {
        type            zeroGradient;
    }
    interface
    {
        type            fixedValue;
        value           nonuniform List<scalar> 
64
(
2.75872
2.75872
3.08753
3.34814
3.34814
3.48071
3.61072
3.61072
3.678
3.678
3.76818
3.84682
3.84682
3.88812
3.92994
3.92994
3.95097
3.95097
3.9772
3.99488
3.99488
4.01661
4.03388
4.03388
4.04144
4.04144
4.04984
4.05481
4.05481
4.05957
4.06204
4.06204
4.0619
4.0619
4.05885
4.0535
4.0535
4.04822
4.03945
4.03945
4.03193
4.03193
4.01586
3.99957
3.99957
3.96691
3.9285
3.9285
3.89981
3.89981
3.8429
3.78622
3.78622
3.67483
3.54327
3.54327
3.44045
3.44045
3.2283
2.99189
2.99189
2.44989
2.44989
2.44989
)
;
    }
    bottom
    {
        type            fixedValue;
        value           uniform 10;
    }
    defaultFaces
    {
        type            empty;
    }
}


// ************************************************************************* //
