/*--------------------------------*- C++ -*----------------------------------*\
| =========                 |                                                 |
| \\      /  F ield         | OpenFOAM: The Open Source CFD Toolbox           |
|  \\    /   O peration     | Version:  5.x                                   |
|   \\  /    A nd           | Web:      www.OpenFOAM.org                      |
|    \\/     M anipulation  |                                                 |
\*---------------------------------------------------------------------------*/
FoamFile
{
    version     2.0;
    format      ascii;
    class       volScalarField;
    location    "0.6";
    object      gradTx;
}
// * * * * * * * * * * * * * * * * * * * * * * * * * * * * * * * * * * * * * //

dimensions      [0 -1 0 1 0 0 0];

internalField   nonuniform List<scalar> 
2048
(
0.00637203
0.0188513
0.0305334
0.0409771
0.0498739
0.0570239
0.0623649
0.0659501
0.067913
0.0684399
0.0677452
0.0660511
0.063573
0.0605091
0.0570349
0.0532996
0.0494251
0.0455064
0.0416139
0.0377964
0.0340846
0.0304956
0.0270357
0.0237035
0.0204918
0.017389
0.01438
0.0114467
0.00856875
0.00572394
0.00288841
3.70248e-05
-0.00285652
-0.00581965
-0.00888078
-0.012069
-0.0154138
-0.0189437
-0.0226856
-0.0266633
-0.0308954
-0.0353942
-0.0401632
-0.0451954
-0.0504703
-0.0559505
-0.0615779
-0.0672688
-0.0729089
-0.0783496
-0.0834048
-0.0878509
-0.0914293
-0.0938528
-0.0948166
-0.0940151
-0.0911647
-0.0860329
-0.0784731
-0.0684581
-0.0561093
-0.0417117
-0.0257106
-0.00868727
0.0190634
0.0563837
0.0912889
0.122436
0.148892
0.170079
0.18583
0.19632
0.201969
0.203349
0.201112
0.195926
0.188436
0.179233
0.168838
0.157695
0.146161
0.134518
0.12297
0.111658
0.100671
0.0900548
0.0798269
0.0699813
0.0604955
0.0513347
0.0424534
0.033798
0.0253078
0.0169167
0.00855414
0.000145707
-0.00838646
-0.0171235
-0.0261497
-0.0355516
-0.0454167
-0.0558306
-0.066874
-0.0786183
-0.0911203
-0.104418
-0.118523
-0.133417
-0.149043
-0.165293
-0.181999
-0.198918
-0.215715
-0.231954
-0.247084
-0.260442
-0.271258
-0.278675
-0.281777
-0.279642
-0.271406
-0.256356
-0.234028
-0.20432
-0.167576
-0.124642
-0.0768557
-0.025973
0.0318314
0.0941023
0.152228
0.203913
0.247584
0.282322
0.307901
0.324683
0.333425
0.335129
0.33091
0.321897
0.309167
0.293699
0.276352
0.25785
0.238781
0.219594
0.200618
0.182071
0.164089
0.146739
0.130041
0.113982
0.0985216
0.0836001
0.069142
0.0550586
0.0412496
0.0276062
0.0140126
0.00034696
-0.0135179
-0.0277148
-0.0423819
-0.0576617
-0.0736991
-0.0906371
-0.108611
-0.127741
-0.148126
-0.16983
-0.192879
-0.217251
-0.242857
-0.269535
-0.297021
-0.324932
-0.352731
-0.379713
-0.40498
-0.427444
-0.445831
-0.458714
-0.464558
-0.4618
-0.448954
-0.424767
-0.388392
-0.339585
-0.278869
-0.20763
-0.128115
-0.0433099
0.0450397
0.133053
0.214956
0.287408
0.348171
0.396021
0.430763
0.453042
0.46405
0.465292
0.458397
0.444981
0.426562
0.404508
0.38001
0.354067
0.327477
0.300849
0.274613
0.249053
0.224332
0.200527
0.17765
0.155674
0.134538
0.114157
0.094425
0.0752172
0.0563943
0.0378055
0.0192908
0.00068283
-0.0181928
-0.0375184
-0.0574841
-0.0782878
-0.100132
-0.123219
-0.14774
-0.173869
-0.201749
-0.231477
-0.2631
-0.296597
-0.331864
-0.368699
-0.406764
-0.445558
-0.48437
-0.522247
-0.557963
-0.590016
-0.616631
-0.635803
-0.645351
-0.643022
-0.626633
-0.594289
-0.544646
-0.477208
-0.3926
-0.292733
-0.180806
-0.0611521
0.0590194
0.174185
0.280918
0.374693
0.452568
0.51308
0.556191
0.582978
0.595201
0.594973
0.584498
0.565912
0.541187
0.51208
0.480112
0.446543
0.412376
0.378356
0.344998
0.312625
0.281409
0.251418
0.222648
0.195048
0.168535
0.142997
0.118296
0.0942729
0.0707472
0.0475266
0.024408
0.0011804
-0.0223756
-0.046489
-0.0714005
-0.0973625
-0.124636
-0.153485
-0.184162
-0.216898
-0.251886
-0.289264
-0.329103
-0.371395
-0.416035
-0.462798
-0.511301
-0.560955
-0.610905
-0.659978
-0.706641
-0.748985
-0.78474
-0.811305
-0.825821
-0.825279
-0.806699
-0.767401
-0.705376
-0.619719
-0.511047
-0.381766
-0.236101
-0.0799051
0.0740952
0.218422
0.351493
0.467409
0.56249
0.635135
0.685643
0.715726
0.727892
0.724982
0.70985
0.68518
0.653407
0.616677
0.576832
0.535392
0.493544
0.452154
0.411795
0.372804
0.335335
0.299427
0.265046
0.232113
0.200519
0.170125
0.140762
0.112233
0.0843174
0.0567806
0.0293772
0.00185431
-0.0260493
-0.0546066
-0.0841062
-0.114854
-0.147173
-0.181389
-0.217824
-0.256772
-0.298483
-0.34314
-0.390845
-0.441613
-0.49535
-0.551833
-0.610663
-0.671201
-0.732485
-0.793155
-0.851391
-0.904895
-0.950894
-0.986183
-1.00719
-1.01008
-0.99095
-0.946158
-0.872808
-0.769365
-0.636277
-0.476404
-0.295095
-0.0999496
0.090603
0.266706
0.428062
0.56715
0.679528
0.763617
0.820311
0.852225
0.862835
0.855853
0.834847
0.803073
0.763423
0.718428
0.670246
0.620647
0.570993
0.522248
0.475015
0.429608
0.386136
0.344584
0.304875
0.266896
0.230512
0.19556
0.161838
0.129111
0.0971173
0.0655782
0.0342062
0.00270916
-0.0292124
-0.0618715
-0.0956017
-0.130762
-0.167736
-0.20692
-0.248711
-0.293474
-0.341522
-0.393089
-0.448316
-0.507244
-0.569804
-0.635798
-0.704847
-0.776305
-0.849152
-0.921877
-0.992401
-1.05804
-1.11554
-1.16106
-1.1903
-1.19853
-1.1808
-1.13228
-1.04891
-0.928209
-0.770249
-0.578269
-0.358856
-0.121659
0.108906
0.320046
0.512061
0.675512
0.805194
0.899795
0.961155
0.993147
1.00047
0.987871
0.959676
0.919708
0.871302
0.817357
0.760345
0.702281
0.644694
0.588621
0.534659
0.483059
0.433849
0.386934
0.342178
0.299434
0.258546
0.219326
0.181545
0.144926
0.109163
0.0739301
0.0388994
0.00374166
-0.0318761
-0.0683015
-0.105909
-0.145108
-0.186347
-0.230097
-0.276837
-0.327015
-0.381016
-0.439128
-0.501534
-0.568304
-0.639404
-0.714682
-0.79382
-0.87622
-0.960859
-1.04612
-1.1297
-1.20853
-1.27887
-1.33626
-1.37566
-1.3914
-1.37734
-1.32722
-1.23543
-1.0982
-0.914875
-0.688974
-0.428463
-0.145412
0.12941
0.37955
0.605034
0.794136
0.940949
1.04479
1.10892
1.13891
1.141
1.1211
1.08435
1.03507
0.977006
0.913407
0.847056
0.780219
0.714583
0.651236
0.590722
0.533186
0.478525
0.426538
0.377017
0.329781
0.284662
0.241459
0.199912
0.159703
0.120473
0.0818482
0.043459
0.00494263
-0.0340614
-0.0739283
-0.115067
-0.157937
-0.203051
-0.250962
-0.302242
-0.357434
-0.417004
-0.481303
-0.550548
-0.624838
-0.704176
-0.788481
-0.877535
-0.970858
-1.06749
-1.16577
-1.26318
-1.3563
-1.44088
-1.51187
-1.56348
-1.58911
-1.58133
-1.53215
-1.43398
-1.28121
-1.07207
-0.810174
-0.505032
-0.171603
0.152574
0.446467
0.708671
0.924747
1.08822
1.19957
1.26411
1.28967
1.28437
1.25543
1.20872
1.14903
1.08042
1.00646
0.930262
0.85435
0.780575
0.710045
0.643206
0.580028
0.520232
0.463475
0.409464
0.357996
0.308908
0.261996
0.216973
0.173469
0.131069
0.0893462
0.0478864
0.00629873
-0.0357971
-0.078795
-0.123132
-0.16931
-0.21791
-0.269575
-0.324983
-0.384787
-0.449548
-0.51968
-0.595432
-0.676917
-0.764175
-0.857204
-0.955941
-1.0601
-1.16889
-1.28064
-1.39266
-1.50117
-1.6014
-1.68774
-1.7537
-1.7918
-1.79324
-1.74803
-1.64602
-1.47909
-1.2438
-0.943596
-0.589733
-0.200642
0.178934
0.522225
0.824856
1.06917
1.24842
1.36498
1.42704
1.44535
1.43031
1.39055
1.33256
1.26141
1.18139
1.09637
1.00981
0.924537
0.842564
0.764998
0.692115
0.623642
0.559059
0.497842
0.439609
0.38415
0.331336
0.280978
0.232762
0.186257
0.140979
0.0964403
0.0521836
0.00779401
-0.0371184
-0.0829544
-0.130168
-0.179301
-0.231003
-0.286014
-0.345133
-0.409145
-0.478724
-0.554349
-0.636286
-0.724645
-0.819481
-0.920883
-1.02899
-1.14382
-1.26484
-1.39048
-1.51788
-1.64286
-1.76016
-1.86356
-1.94601
-1.99929
-2.01326
-1.97557
-1.87289
-1.69369
-1.4321
-1.09106
-0.683804
-0.232965
0.209109
0.608472
0.955705
1.22936
1.42289
1.54165
1.59774
1.6056
1.57834
1.52601
1.45554
1.37198
1.27972
1.18297
1.08554
0.990624
0.900436
0.816042
0.737471
0.664104
0.595116
0.52976
0.467556
0.408319
0.351999
0.298449
0.247319
0.198103
0.150232
0.10315
0.0563538
0.00941125
-0.0380643
-0.0864665
-0.136253
-0.187999
-0.242421
-0.300368
-0.362776
-0.43059
-0.50462
-0.585415
-0.673235
-0.768155
-0.870214
-0.979582
-1.09665
-1.22187
-1.35512
-1.49502
-1.63853
-1.78106
-1.91677
-2.03889
-2.1399
-2.21112
-2.24123
-2.21526
-2.1158
-1.92686
-1.63912
-1.25451
-0.788548
-0.269023
0.243828
0.707122
1.10362
1.40739
1.61295
1.73006
1.776
1.7698
1.72775
1.66126
1.57729
1.48049
1.37525
1.26608
1.15728
1.05245
0.954068
0.863133
0.779307
0.701513
0.628538
0.559369
0.493418
0.43058
0.370949
0.314448
0.260685
0.209046
0.158863
0.109499
0.0604026
0.011133
-0.0386772
-0.0893971
-0.141473
-0.1955
-0.252267
-0.312736
-0.378004
-0.449209
-0.527331
-0.612995
-0.706426
-0.807612
-0.916534
-1.0334
-1.15891
-1.2941
-1.43949
-1.59397
-1.75431
-1.91544
-2.07086
-2.21318
-2.33464
-2.42652
-2.47669
-2.4673
-2.37586
-2.18047
-1.86712
-1.43601
-0.905325
-0.309275
0.283938
0.820404
1.27131
1.60549
1.8198
1.93044
1.96131
1.93706
1.87763
1.79565
1.69745
1.58675
1.46779
1.34555
1.22484
1.10982
1.00333
0.906232
0.817681
0.735991
0.659486
0.586833
0.517324
0.451011
0.38823
0.329014
0.272901
0.21913
0.16691
0.115516
0.0643388
0.0129426
-0.0390011
-0.0918164
-0.145917
-0.201909
-0.260651
-0.323228
-0.390914
-0.46509
-0.546955
-0.637217
-0.736024
-0.843214
-0.958645
-1.0825
-1.21579
-1.36038
-1.51768
-1.68702
-1.86491
-2.04565
-2.22202
-2.38587
-2.52933
-2.64441
-2.71881
-2.73162
-2.65404
-2.45644
-2.11853
-1.63778
-1.03553
-0.354173
0.330424
0.950914
1.46189
1.82598
2.04451
2.14276
2.15287
2.10621
2.02689
1.92844
1.81567
1.69059
1.55724
1.42124
1.28805
1.16257
1.04808
0.945309
0.852673
0.767687
0.688146
0.61234
0.539412
0.469682
0.403877
0.34218
0.284011
0.228401
0.174418
0.121233
0.0681745
0.0148246
-0.0390806
-0.0937977
-0.149684
-0.207337
-0.267692
-0.331961
-0.401608
-0.47832
-0.563587
-0.658214
-0.762208
-0.875182
-0.996798
-1.12707
-1.26732
-1.42055
-1.58944
-1.77387
-1.97004
-2.1714
-2.3699
-2.55639
-2.72296
-2.8634
-2.96637
-3.00788
-2.95119
-2.75673
-2.39597
-1.86219
-1.18055
-0.404124
0.384415
1.10167
1.67892
2.07132
2.28793
2.36671
2.34958
2.27578
2.17425
2.05891
1.93174
1.79194
1.64349
1.49304
1.34677
1.21049
1.08819
0.980352
0.884392
0.796772
0.714731
0.636106
0.559828
0.486656
0.41791
0.353974
0.294064
0.23691
0.181432
0.126689
0.071926
0.016765
-0.03896
-0.0954161
-0.152872
-0.211898
-0.273515
-0.339059
-0.410188
-0.488978
-0.577314
-0.676118
-0.785172
-0.903762
-1.03129
-1.1674
-1.31361
-1.47446
-1.65445
-1.85425
-2.06943
-2.29243
-2.51426
-2.72427
-2.9144
-3.08179
-3.21776
-3.29539
-3.26802
-3.0833
-2.70228
-2.11179
-1.34168
-0.459448
0.447172
1.27616
1.92647
2.34399
2.55062
2.60168
2.55005
2.44403
2.31823
2.18633
2.04554
1.89082
1.72648
1.56088
1.40083
1.25336
1.12348
1.01136
0.912985
0.82344
0.739471
0.658378
0.578728
0.501975
0.430329
0.364417
0.303111
0.244712
0.188003
0.131929
0.0756133
0.0187516
-0.0386821
-0.0967476
-0.155587
-0.215709
-0.278248
-0.344658
-0.41676
-0.497134
-0.588211
-0.691063
-0.805113
-0.92921
-1.06248
-1.20385
-1.35478
-1.52194
-1.71242
-1.92786
-2.16287
-2.40851
-2.65497
-2.8892
-3.1025
-3.29752
-3.47089
-3.59314
-3.60511
-3.43813
-3.04058
-2.38938
-1.52006
-0.520302
0.520067
1.47842
2.20927
2.64649
2.83269
2.84674
2.7526
2.60892
2.45722
2.31001
2.15722
1.98735
1.80618
1.62474
1.45012
1.29095
1.15379
1.03836
0.938643
0.847896
0.762615
0.67944
0.596276
0.515655
0.441108
0.373527
0.311218
0.251863
0.194183
0.137005
0.0792605
0.0207729
-0.0382875
-0.0978678
-0.157935
-0.218884
-0.282022
-0.348905
-0.421431
-0.502845
-0.596335
-0.703177
-0.822238
-0.951779
-1.09076
-1.23687
-1.39099
-1.5628
-1.763
-1.99447
-2.25021
-2.51944
-2.79203
-3.05115
-3.2861
-3.5082
-3.72315
-3.89977
-3.96294
-3.82314
-3.41432
-2.698
-1.71646
-0.586586
0.604502
1.71302
2.53285
2.9812
3.13366
3.1007
2.95536
2.76815
2.58941
2.42939
2.26718
2.0818
1.88252
1.68464
1.49454
1.32298
1.1789
1.0614
0.961613
0.870349
0.784418
0.699628
0.612641
0.527678
0.45019
0.381318
0.318464
0.258424
0.200023
0.141978
0.0828952
0.0228175
-0.0378123
-0.098851
-0.160024
-0.221533
-0.284966
-0.351961
-0.42431
-0.506147
-0.601718
-0.712586
-0.83676
-0.971699
-1.11656
-1.26705
-1.42249
-1.59681
-1.80577
-2.05385
-2.33137
-2.62501
-2.92563
-3.21049
-3.46408
-3.71107
-3.97142
-4.21362
-4.34192
-4.24005
-3.8274
-3.04114
-1.93114
-0.657804
0.701783
1.98517
2.90375
3.35023
3.45224
3.36217
3.15627
2.9191
2.7128
2.54398
2.37624
2.17449
1.95537
1.74071
1.53401
1.34912
1.19858
1.08057
0.982222
0.890989
0.805128
0.71934
0.627997
0.537977
0.457484
0.387802
0.324954
0.264448
0.205569
0.146921
0.0865474
0.0248716
-0.0372868
-0.0997691
-0.161971
-0.223755
-0.287204
-0.354015
-0.425514
-0.507057
-0.604363
-0.719417
-0.848904
-0.98915
-1.14035
-1.29514
-1.44954
-1.62367
-1.84027
-2.10585
-2.4064
-2.72488
-3.05608
-3.36813
-3.63546
-3.90295
-4.21193
-4.53268
-4.74248
-4.69022
-4.28426
-3.42285
-2.16346
-0.732895
0.812894
2.30063
3.32989
3.75525
3.78605
3.62978
3.35322
3.05886
2.8252
2.65349
2.48576
2.26583
2.02443
1.79319
1.56853
1.369
1.21253
1.09597
1.00091
0.909963
0.82497
0.739073
0.642521
0.54642
0.462854
0.392998
0.330831
0.269985
0.210856
0.151923
0.0902484
0.0269162
-0.0367321
-0.10069
-0.1639
-0.225636
-0.288847
-0.355284
-0.425165
-0.505566
-0.604236
-0.723796
-0.858926
-1.00422
-1.16261
-1.32212
-1.47249
-1.64298
-1.86592
-2.15034
-2.4755
-2.81854
-3.18381
-3.52571
-3.79941
-4.08026
-4.44023
-4.85466
-5.16524
-5.17428
-4.79008
-3.84809
-2.41152
-0.810022
0.938133
2.66577
3.82097
4.19713
4.13125
3.90235
3.5441
3.1842
2.9242
2.75772
2.59778
2.35621
2.08913
1.84252
1.59812
1.3821
1.2204
1.10779
1.01825
0.927328
0.844113
0.759458
0.656385
0.552795
0.466121
0.39693
0.336292
0.275061
0.215902
0.1571
0.0940277
0.0289221
-0.036156
-0.101673
-0.165952
-0.227238
-0.289982
-0.356035
-0.423393
-0.501634
-0.601248
-0.72586
-0.867138
-1.01686
-1.18377
-1.34923
-1.49169
-1.65426
-1.882
-2.18732
-2.53919
-2.9051
-3.30926
-3.68593
-3.95528
-4.23896
-4.65112
-5.17702
-5.61128
-5.69164
-5.35099
-4.32316
-2.67158
-0.886332
1.07659
3.08738
4.38916
4.67562
4.48207
4.17939
3.72693
3.29151
3.0071
2.85665
2.71531
2.44593
2.14849
1.88949
1.62288
1.38782
1.22176
1.11621
1.03506
0.943003
0.862646
0.781319
0.669744
0.556784
0.467061
0.399635
0.341612
0.279672
0.220701
0.162603
0.0979096
0.0308436
-0.0355469
-0.10277
-0.168296
-0.228593
-0.290659
-0.356601
-0.420337
-0.495191
-0.595253
-0.725754
-0.873955
-1.02681
-1.20424
-1.37811
-1.50756
-1.65686
-1.88762
-2.21686
-2.59838
-2.98311
-3.43279
-3.85278
-4.10261
-4.37456
-4.83848
-5.49697
-6.08266
-6.2397
-5.97432
-4.85638
-2.93719
-0.957708
1.22535
3.57261
5.04998
5.18871
4.83029
4.46168
3.89987
3.37674
3.07097
2.95026
2.84256
2.53505
2.20087
1.93534
1.64297
1.38536
1.21611
1.1215
1.05244
0.95668
0.880522
0.805761
0.682714
0.557941
0.465408
0.401159
0.347173
0.283756
0.225206
0.168642
0.101906
0.0326096
-0.0348655
-0.104015
-0.171146
-0.22969
-0.290866
-0.357409
-0.416144
-0.486132
-0.586021
-0.72363
-0.879965
-1.03352
-1.22427
-1.4109
-1.52049
-1.64996
-1.88166
-2.23913
-2.65468
-3.05026
-3.55442
-4.0321
-4.24102
-4.48213
-4.99524
-5.81143
-6.58307
-6.81273
-6.66905
-5.45897
-3.1982
-1.01856
1.37845
4.12867
5.82354
5.73198
5.16448
4.75209
4.06124
3.43534
3.11253
3.03848
2.98546
2.62314
2.24377
1.98208
1.65855
1.37371
1.20286
1.12389
1.07193
0.967726
0.897509
0.834276
0.695333
0.555669
0.460859
0.401553
0.353509
0.287164
0.22932
0.175506
0.10601
0.034112
-0.0340343
-0.105419
-0.174782
-0.230468
-0.290506
-0.359019
-0.410957
-0.474325
-0.573224
-0.719643
-0.886035
-1.03604
-1.24389
-1.45044
-1.5308
-1.63261
-1.86272
-2.25433
-2.71068
-3.10307
-3.67361
-4.23207
-4.37005
-4.5563
-5.11318
-6.11694
-7.11898
-7.40027
-7.44621
-6.14634
-3.43928
-1.06168
1.52542
4.76252
6.73608
6.29757
5.46917
5.05678
4.20934
3.46213
3.12829
3.12087
3.15208
2.7091
2.27348
2.03281
1.66977
1.35159
1.18135
1.1236
1.09566
0.97504
0.913116
0.868901
0.707501
0.549185
0.453099
0.400863
0.361357
0.289617
0.23288
0.183598
0.110175
0.0351918
-0.0329242
-0.106956
-0.179584
-0.230796
-0.28935
-0.362172
-0.404904
-0.459613
-0.556409
-0.713922
-0.893452
-1.03288
-1.26281
-1.5005
-1.53862
-1.60365
-1.82902
-2.26266
-2.77049
-3.1364
-3.78883
-4.46403
-4.48884
-4.59148
-5.18283
-6.40935
-7.70122
-7.98497
-8.31958
-6.93976
-3.63801
-1.07836
1.64945
5.48042
7.82205
6.87295
5.72385
5.38665
4.34218
3.45126
3.11456
3.1963
3.3534
2.79071
2.2847
2.09219
1.67657
1.3174
1.15086
1.12073
1.12658
0.97688
0.926509
0.912407
0.718896
0.537506
0.441821
0.399098
0.371731
0.290652
0.235639
0.193483
0.114306
0.0356225
-0.0313375
-0.108551
-0.186073
-0.230466
-0.28699
-0.367858
-0.398069
-0.441836
-0.534977
-0.706524
-0.904116
-1.02189
-1.28026
-1.56605
-1.54377
-1.56183
-1.77843
-2.26411
-2.84028
-3.143
-3.89706
-4.74342
-4.59563
-4.58197
-5.19336
-6.68328
-8.34721
-8.5397
-9.30641
-7.86845
-3.76251
-1.0587
1.725
6.28738
9.12666
7.4394
5.90185
5.75933
4.45685
3.39612
3.06764
3.2624
3.60418
2.86423
2.27014
2.16706
1.67855
1.26916
1.11071
1.11512
1.16876
0.970641
0.936416
0.968548
0.72884
0.519429
0.426772
0.396187
0.386011
0.289548
0.23725
0.205939
0.118225
0.035091
-0.0289894
-0.11005
-0.19496
-0.229175
-0.282772
-0.377401
-0.390447
-0.420857
-0.508157
-0.697362
-0.92079
-1.00004
-1.29476
-1.65368
-1.54545
-1.50581
-1.70834
-2.25823
-2.92918
-3.11289
-3.99316
-5.09104
-4.68697
-4.52241
-5.13246
-6.93124
-9.084
-9.02384
-10.4284
-8.97229
-3.76827
-0.992514
1.715
7.18649
10.7089
7.97009
5.969
6.20151
4.5487
3.28929
2.98414
3.31479
3.92403
2.9238
2.21995
2.26719
1.67464
1.20451
1.06031
1.10613
1.22775
0.952589
0.941012
1.04236
0.736136
0.493528
0.407807
0.391911
0.406061
0.285241
0.23725
0.222032
0.121642
0.0331777
-0.0254873
-0.1112
-0.207208
-0.226512
-0.275711
-0.392566
-0.381883
-0.3966
-0.474989
-0.686087
-0.947415
-0.963237
-1.3039
-1.77205
-1.54203
-1.43436
-1.61566
-2.24369
-3.05027
-3.03264
-4.06902
-5.53456
-4.75668
-4.40823
-4.9864
-7.14225
-9.95223
-9.3786
-11.7129
-10.305
-3.5943
-0.870774
1.56745
8.1781
12.6453
8.42775
5.88228
6.75187
4.60998
3.12266
2.86135
3.34611
4.33876
2.96077
2.12121
2.40624
1.66266
1.12067
0.999284
1.09244
1.31101
0.917534
0.937798
1.14054
0.738836
0.458168
0.384964
0.385805
0.434375
0.276211
0.235044
0.24319
0.124111
0.0293364
-0.0203087
-0.111604
-0.224109
-0.221948
-0.26439
-0.415699
-0.371986
-0.369106
-0.434311
-0.671924
-0.989494
-0.906106
-1.30405
-1.93248
-1.53052
-1.34652
-1.49686
-2.21775
-3.22182
-2.88468
-4.1126
-6.11043
-4.79436
-4.23644
-4.74011
-7.29988
-11.0113
-9.52133
-13.1943
-11.938
-3.15841
-0.687974
1.21152
9.25892
15.034
8.7621
5.58827
7.4644
4.62817
2.88756
2.69783
3.34471
4.88197
2.9629
1.95731
2.60284
1.63878
1.01452
0.927684
1.07163
1.4285
0.85846
0.923467
1.27181
0.73396
0.411541
0.358553
0.377029
0.474246
0.260355
0.229895
0.271298
0.124977
0.0228758
-0.0127806
-0.110679
-0.247362
-0.21483
-0.246839
-0.449884
-0.360006
-0.338613
-0.384762
-0.653451
-1.05454
-0.821736
-1.28997
-2.14963
-1.50607
-1.24188
-1.348
-2.17548
-3.46883
-2.64649
-4.10672
-6.86605
-4.78358
-4.00657
-4.37753
-7.37948
-12.3457
-9.33872
-14.9157
-13.9647
-2.35156
-0.445501
0.553284
10.4211
17.9994
8.90674
5.02169
8.41223
4.58369
2.5751
2.4942
3.29308
5.59689
2.91334
1.70727
2.88188
1.59677
0.882646
0.84619
1.03971
1.59328
0.766095
0.893772
1.44748
0.717145
0.351735
0.32927
0.364199
0.529976
0.234834
0.220919
0.308801
0.123313
0.0129449
-0.00206151
-0.107603
-0.279167
-0.204379
-0.220391
-0.499143
-0.344687
-0.305641
-0.324807
-0.628316
-1.1526
-0.701443
-1.2544
-2.4423
-1.46127
-1.1209
-1.16489
-2.10875
-3.8247
-2.28972
-4.02772
-7.86243
-4.69954
-3.7219
-3.88212
-7.34462
-14.0726
-8.6789
-16.931
-16.5057
-1.03122
-0.156249
)
;

boundaryField
{
    left
    {
        type            calculated;
        value           uniform 0;
    }
    right
    {
        type            calculated;
        value           uniform 0;
    }
    interface
    {
        type            calculated;
        value           nonuniform List<scalar> 
64
(
0.553284
10.4211
17.9994
8.90674
5.02169
8.41223
4.58369
2.5751
2.4942
3.29308
5.59689
2.91334
1.70727
2.88188
1.59677
0.882646
0.84619
1.03971
1.59328
0.766095
0.893772
1.44748
0.717145
0.351735
0.32927
0.364199
0.529976
0.234834
0.220919
0.308801
0.123313
0.0129449
-0.00206151
-0.107603
-0.279167
-0.204379
-0.220391
-0.499143
-0.344687
-0.305641
-0.324807
-0.628316
-1.1526
-0.701443
-1.2544
-2.4423
-1.46127
-1.1209
-1.16489
-2.10875
-3.8247
-2.28972
-4.02772
-7.86243
-4.69954
-3.7219
-3.88212
-7.34462
-14.0726
-8.6789
-16.931
-16.5057
-1.03122
-0.156249
)
;
    }
    bottom
    {
        type            calculated;
        value           nonuniform List<scalar> 
64
(
0.00637203
0.0188513
0.0305334
0.0409771
0.0498739
0.0570239
0.0623649
0.0659501
0.067913
0.0684399
0.0677452
0.0660511
0.063573
0.0605091
0.0570349
0.0532996
0.0494251
0.0455064
0.0416139
0.0377964
0.0340846
0.0304956
0.0270357
0.0237035
0.0204918
0.017389
0.01438
0.0114467
0.00856875
0.00572394
0.00288841
3.70248e-05
-0.00285652
-0.00581965
-0.00888078
-0.012069
-0.0154138
-0.0189437
-0.0226856
-0.0266633
-0.0308954
-0.0353942
-0.0401632
-0.0451954
-0.0504703
-0.0559505
-0.0615779
-0.0672688
-0.0729089
-0.0783496
-0.0834048
-0.0878509
-0.0914293
-0.0938528
-0.0948166
-0.0940151
-0.0911647
-0.0860329
-0.0784731
-0.0684581
-0.0561093
-0.0417117
-0.0257106
-0.00868727
)
;
    }
    defaultFaces
    {
        type            empty;
    }
}


// ************************************************************************* //
