/*--------------------------------*- C++ -*----------------------------------*\
| =========                 |                                                 |
| \\      /  F ield         | OpenFOAM: The Open Source CFD Toolbox           |
|  \\    /   O peration     | Version:  5.x                                   |
|   \\  /    A nd           | Web:      www.OpenFOAM.org                      |
|    \\/     M anipulation  |                                                 |
\*---------------------------------------------------------------------------*/
FoamFile
{
    version     2.0;
    format      ascii;
    class       volScalarField;
    location    "0.6";
    object      gradTy;
}
// * * * * * * * * * * * * * * * * * * * * * * * * * * * * * * * * * * * * * //

dimensions      [0 -1 0 1 0 0 0];

internalField   nonuniform List<scalar> 
2048
(
-25.7884
-25.7604
-25.7056
-25.6265
-25.526
-25.4079
-25.2763
-25.135
-24.9879
-24.8383
-24.689
-24.5426
-24.401
-24.2656
-24.1374
-24.0172
-23.9054
-23.8022
-23.7075
-23.6212
-23.5432
-23.4731
-23.4106
-23.3556
-23.3076
-23.2665
-23.2321
-23.2041
-23.1823
-23.1668
-23.1574
-23.1542
-23.1572
-23.1666
-23.1825
-23.2051
-23.2348
-23.272
-23.317
-23.3704
-23.4328
-23.5046
-23.5865
-23.6791
-23.7829
-23.8984
-24.0261
-24.1662
-24.3188
-24.4836
-24.66
-24.8469
-25.0429
-25.2457
-25.4525
-25.6598
-25.8633
-26.0584
-26.2398
-26.402
-26.5397
-26.648
-26.7227
-26.7608
-25.8099
-25.781
-25.7243
-25.6426
-25.5391
-25.4178
-25.2829
-25.1386
-24.9887
-24.8367
-24.6855
-24.5375
-24.3947
-24.2583
-24.1296
-24.0091
-23.8971
-23.7938
-23.6992
-23.6131
-23.5352
-23.4654
-23.4031
-23.3483
-23.3005
-23.2596
-23.2253
-23.1974
-23.1757
-23.1602
-23.1508
-23.1476
-23.1505
-23.1597
-23.1754
-23.1978
-23.2272
-23.264
-23.3086
-23.3616
-23.4235
-23.4949
-23.5763
-23.6684
-23.7719
-23.8871
-24.0146
-24.1547
-24.3075
-24.4728
-24.65
-24.8383
-25.0361
-25.2412
-25.4509
-25.6615
-25.869
-26.0683
-26.2542
-26.4207
-26.5625
-26.6741
-26.7511
-26.7905
-25.8514
-25.8205
-25.7602
-25.6734
-25.564
-25.4364
-25.2953
-25.1451
-24.99
-24.8335
-24.6785
-24.5276
-24.3824
-24.2445
-24.1146
-23.9935
-23.8812
-23.7779
-23.6835
-23.5977
-23.5202
-23.4507
-23.3889
-23.3345
-23.2871
-23.2465
-23.2124
-23.1847
-23.1632
-23.1478
-23.1384
-23.135
-23.1377
-23.1467
-23.162
-23.1839
-23.2127
-23.2489
-23.2928
-23.345
-23.406
-23.4765
-23.557
-23.6483
-23.7509
-23.8656
-23.9927
-24.1327
-24.2859
-24.4521
-24.6309
-24.8216
-25.0227
-25.2322
-25.4473
-25.6645
-25.8794
-26.087
-26.2813
-26.4564
-26.6059
-26.7241
-26.8059
-26.8477
-25.9116
-25.8778
-25.812
-25.7177
-25.5995
-25.4626
-25.3124
-25.1538
-24.9912
-24.8282
-24.668
-24.5129
-24.3647
-24.2245
-24.0932
-23.9712
-23.8586
-23.7554
-23.6613
-23.576
-23.499
-23.4302
-23.3689
-23.3151
-23.2682
-23.2281
-23.1944
-23.167
-23.1456
-23.1303
-23.1209
-23.1174
-23.1198
-23.1284
-23.1432
-23.1644
-23.1925
-23.2277
-23.2706
-23.3216
-23.3814
-23.4505
-23.5298
-23.6198
-23.7214
-23.8351
-23.9615
-24.1014
-24.2549
-24.4223
-24.6033
-24.7973
-25.0031
-25.2187
-25.4415
-25.6679
-25.8935
-26.1129
-26.3197
-26.5072
-26.6682
-26.7961
-26.8849
-26.9304
-25.9897
-25.9519
-25.8786
-25.7742
-25.6443
-25.4953
-25.3332
-25.1637
-24.9916
-24.8206
-24.6538
-24.4936
-24.3415
-24.1987
-24.0657
-23.9428
-23.83
-23.727
-23.6333
-23.5487
-23.4725
-23.4044
-23.344
-23.2908
-23.2446
-23.2051
-23.1719
-23.1449
-23.1238
-23.1086
-23.0991
-23.0955
-23.0976
-23.1057
-23.1198
-23.1403
-23.1673
-23.2014
-23.2429
-23.2924
-23.3506
-23.4181
-23.4957
-23.5841
-23.6842
-23.7966
-23.9222
-24.0616
-24.2155
-24.3841
-24.5676
-24.7656
-24.977
-25.2002
-25.4327
-25.6708
-25.9101
-26.1447
-26.3678
-26.5716
-26.748
-26.8887
-26.987
-27.0375
-26.0855
-26.0425
-25.9595
-25.8422
-25.6976
-25.5333
-25.3567
-25.174
-24.9904
-24.8099
-24.6356
-24.4695
-24.3131
-24.1673
-24.0326
-23.9089
-23.7959
-23.6933
-23.6004
-23.5166
-23.4414
-23.3743
-23.3148
-23.2625
-23.2171
-23.1783
-23.1457
-23.1191
-23.0984
-23.0833
-23.0738
-23.07
-23.0717
-23.0792
-23.0926
-23.1121
-23.138
-23.1707
-23.2106
-23.2584
-23.3146
-23.3802
-23.4557
-23.5421
-23.6403
-23.7511
-23.8754
-24.0142
-24.1681
-24.338
-24.5242
-24.7265
-24.9444
-25.1763
-25.42
-25.672
-25.9277
-26.1809
-26.4241
-26.6484
-26.8439
-27.0011
-27.1114
-27.1682
-26.1991
-26.1495
-26.0544
-25.9209
-25.7582
-25.5755
-25.3815
-25.1835
-24.9869
-24.7958
-24.613
-24.4405
-24.2795
-24.1307
-23.9942
-23.8698
-23.757
-23.655
-23.563
-23.4804
-23.4063
-23.3404
-23.282
-23.2307
-23.1863
-23.1483
-23.1164
-23.0903
-23.0699
-23.055
-23.0456
-23.0415
-23.0429
-23.0498
-23.0623
-23.0807
-23.1053
-23.1364
-23.1745
-23.2202
-23.2743
-23.3375
-23.4107
-23.4947
-23.5907
-23.6995
-23.8221
-23.9598
-24.1135
-24.2844
-24.4731
-24.68
-24.9048
-25.1464
-25.4027
-25.6705
-25.9451
-26.2202
-26.4873
-26.7362
-26.9553
-27.1327
-27.2579
-27.3226
-26.331
-26.2732
-26.163
-26.0097
-25.8251
-25.6206
-25.4066
-25.1912
-24.9801
-24.7774
-24.5856
-24.4064
-24.2407
-24.0888
-23.9508
-23.826
-23.7136
-23.6126
-23.5219
-23.4406
-23.368
-23.3033
-23.2462
-23.1961
-23.1528
-23.1157
-23.0845
-23.0591
-23.0391
-23.0244
-23.0149
-23.0106
-23.0116
-23.0178
-23.0295
-23.0467
-23.0698
-23.0992
-23.1353
-23.1787
-23.2303
-23.2908
-23.3613
-23.4427
-23.5361
-23.6424
-23.763
-23.8991
-24.0521
-24.2236
-24.4147
-24.6262
-24.8581
-25.1099
-25.3799
-25.665
-25.9609
-26.2609
-26.5559
-26.834
-27.0813
-27.2832
-27.4265
-27.5008
-26.4821
-26.4141
-26.2853
-26.108
-25.8973
-25.6674
-25.4307
-25.196
-24.9694
-24.7544
-24.5533
-24.3671
-24.1967
-24.042
-23.9027
-23.7779
-23.6663
-23.5667
-23.4776
-23.398
-23.3269
-23.2638
-23.208
-23.1592
-23.117
-23.0809
-23.0507
-23.0259
-23.0063
-22.9918
-22.9824
-22.9779
-22.9784
-22.984
-22.9947
-23.0107
-23.0323
-23.0597
-23.0936
-23.1345
-23.1833
-23.241
-23.3085
-23.3868
-23.4772
-23.5807
-23.6987
-23.8327
-23.9845
-24.156
-24.349
-24.5648
-24.804
-25.0664
-25.3506
-25.6544
-25.9735
-26.3014
-26.6283
-26.9404
-27.2212
-27.4525
-27.6176
-27.7036
-26.6536
-26.5729
-26.4212
-26.215
-25.9735
-25.7145
-25.4523
-25.1968
-24.9538
-24.7262
-24.5156
-24.3226
-24.1475
-23.9903
-23.8501
-23.7257
-23.6155
-23.5177
-23.4307
-23.353
-23.2837
-23.2221
-23.1678
-23.1204
-23.0795
-23.0446
-23.0152
-22.9912
-22.9721
-22.9578
-22.9484
-22.9437
-22.9437
-22.9486
-22.9584
-22.9731
-22.9931
-23.0185
-23.05
-23.0882
-23.134
-23.1884
-23.2527
-23.3277
-23.4148
-23.5151
-23.63
-23.7612
-23.911
-24.0819
-24.2763
-24.496
-24.7422
-25.0152
-25.3142
-25.6374
-25.9814
-26.3401
-26.703
-27.0544
-27.3744
-27.6406
-27.8317
-27.9316
-26.8469
-26.7506
-26.5709
-26.3299
-26.0523
-25.7602
-25.4701
-25.1925
-24.9326
-24.6925
-24.4725
-24.2727
-24.0934
-23.9339
-23.7933
-23.67
-23.5617
-23.4663
-23.3816
-23.3061
-23.2387
-23.1788
-23.1261
-23.0801
-23.0406
-23.0069
-22.9786
-22.9554
-22.9368
-22.9228
-22.9133
-22.9084
-22.908
-22.9122
-22.9211
-22.9345
-22.9528
-22.9761
-23.0051
-23.0403
-23.0829
-23.1339
-23.1945
-23.266
-23.3495
-23.4462
-23.5575
-23.6853
-23.8324
-24.0018
-24.1967
-24.4198
-24.6726
-24.956
-25.2698
-25.6129
-25.9831
-26.3751
-26.7782
-27.1746
-27.5404
-27.8476
-28.0697
-28.1862
-27.0638
-26.9482
-26.7344
-26.4517
-26.1322
-25.8028
-25.4825
-25.1819
-24.9053
-24.6529
-24.4238
-24.2177
-24.0343
-23.873
-23.7326
-23.6109
-23.5053
-23.4128
-23.3309
-23.2579
-23.1926
-23.1344
-23.0832
-23.0388
-23.0007
-22.9684
-22.9413
-22.9188
-22.9008
-22.887
-22.8776
-22.8724
-22.8716
-22.8752
-22.8831
-22.8952
-22.9118
-22.933
-22.9593
-22.9914
-23.0304
-23.0777
-23.1346
-23.2023
-23.2819
-23.3747
-23.4819
-23.6055
-23.7489
-23.9159
-24.1106
-24.3362
-24.5952
-24.8887
-25.2169
-25.5799
-25.9769
-26.4043
-26.8519
-27.2995
-27.7184
-28.074
-28.3326
-28.4685
-27.3064
-27.1671
-26.9117
-26.5793
-26.2113
-25.8404
-25.4878
-25.164
-24.8712
-24.6073
-24.3698
-24.1575
-23.9704
-23.8079
-23.6682
-23.549
-23.4467
-23.3578
-23.2792
-23.2088
-23.1456
-23.0892
-23.0395
-22.9967
-22.9602
-22.9294
-22.9034
-22.8818
-22.8644
-22.8509
-22.8414
-22.836
-22.8348
-22.8377
-22.8447
-22.8557
-22.8706
-22.8895
-22.913
-22.9418
-22.977
-23.0204
-23.0732
-23.137
-23.2127
-23.3013
-23.4039
-23.5226
-23.6612
-23.8247
-24.0181
-24.2455
-24.51
-24.8131
-25.1552
-25.5373
-25.9611
-26.4258
-26.922
-27.4275
-27.9078
-28.3201
-28.6215
-28.78
-27.5775
-27.4088
-27.1026
-26.711
-26.2876
-25.8709
-25.4844
-25.1377
-24.8301
-24.556
-24.3105
-24.0924
-23.902
-23.7386
-23.6004
-23.4845
-23.3865
-23.3018
-23.2268
-23.1593
-23.0982
-23.0434
-22.9953
-22.9541
-22.9193
-22.8901
-22.8655
-22.8448
-22.8278
-22.8146
-22.805
-22.7994
-22.7979
-22.8002
-22.8064
-22.8162
-22.8294
-22.8461
-22.8667
-22.8919
-22.9232
-22.9623
-23.011
-23.0706
-23.1422
-23.2266
-23.3242
-23.4372
-23.5699
-23.7285
-23.9195
-24.1478
-24.4171
-24.7293
-25.0845
-25.4844
-25.9342
-26.437
-26.9861
-27.5568
-28.1079
-28.5865
-28.9377
-29.1224
-27.8799
-27.6752
-27.307
-26.8451
-26.3584
-25.8921
-25.4706
-25.1022
-24.7817
-24.499
-24.2464
-24.0227
-23.8292
-23.6655
-23.5294
-23.4177
-23.3249
-23.2453
-23.1744
-23.1098
-23.0509
-22.9975
-22.9507
-22.9112
-22.8783
-22.8509
-22.8276
-22.8079
-22.7915
-22.7784
-22.7688
-22.7629
-22.761
-22.7629
-22.7683
-22.777
-22.7886
-22.8031
-22.8207
-22.8422
-22.8692
-22.9038
-22.9481
-23.0036
-23.0711
-23.1512
-23.2436
-23.3499
-23.4753
-23.6278
-23.8152
-24.0434
-24.3168
-24.6376
-25.0049
-25.4207
-25.8945
-26.4357
-27.0415
-27.6852
-28.3176
-28.8738
-29.2828
-29.4972
-28.2171
-27.9684
-27.5243
-26.9789
-26.4213
-25.9016
-25.4447
-25.0567
-24.7263
-24.4372
-24.178
-23.9484
-23.7522
-23.5887
-23.4554
-23.349
-23.2626
-23.1889
-23.1223
-23.0608
-23.0038
-22.9517
-22.906
-22.8681
-22.8374
-22.812
-22.7902
-22.7714
-22.7555
-22.7425
-22.7328
-22.7267
-22.7244
-22.7258
-22.7307
-22.7384
-22.7485
-22.7608
-22.7754
-22.7929
-22.8153
-22.8451
-22.885
-22.9363
-22.9998
-23.0758
-23.1629
-23.2615
-23.3782
-23.5228
-23.7054
-23.9326
-24.2094
-24.5387
-24.9171
-25.3458
-25.8403
-26.4189
-27.0855
-27.8106
-28.536
-29.183
-29.6586
-29.9059
-28.593
-28.2908
-27.7537
-27.1095
-26.473
-25.897
-25.4049
-25.0005
-24.6641
-24.3714
-24.1058
-23.87
-23.6713
-23.5083
-23.3786
-23.2787
-23.1999
-23.133
-23.0711
-23.0125
-22.9575
-22.9061
-22.8612
-22.8251
-22.7968
-22.7736
-22.7533
-22.7355
-22.7201
-22.7072
-22.6972
-22.6908
-22.6883
-22.6893
-22.6937
-22.7006
-22.7092
-22.7195
-22.7311
-22.7444
-22.7618
-22.7865
-22.8218
-22.8688
-22.9285
-23.0009
-23.0828
-23.1728
-23.2789
-23.4138
-23.5905
-23.8156
-24.0951
-24.4332
-24.822
-25.2597
-25.7701
-26.3836
-27.1147
-27.9302
-28.7617
-29.5156
-30.067
-30.35
-29.0118
-28.6453
-27.9941
-27.2328
-26.5104
-25.8758
-25.3493
-24.9331
-24.5958
-24.3028
-24.0307
-23.7874
-23.5866
-23.4247
-23.299
-23.207
-23.1373
-23.0784
-23.0212
-22.9654
-22.9122
-22.8609
-22.8163
-22.7821
-22.7566
-22.736
-22.7173
-22.7004
-22.6855
-22.6724
-22.6621
-22.6555
-22.6527
-22.6535
-22.6575
-22.6638
-22.6711
-22.6794
-22.688
-22.6968
-22.7088
-22.7281
-22.7587
-22.8016
-22.8574
-22.9272
-23.0043
-23.0844
-23.178
-23.3012
-23.4707
-23.6927
-23.9739
-24.3221
-24.7211
-25.1627
-25.6825
-26.3266
-27.126
-28.0414
-28.9927
-29.8734
-30.5104
-30.8304
-29.4781
-29.0355
-28.2436
-27.3438
-26.5301
-25.836
-25.2761
-24.8543
-24.5222
-24.2332
-23.9534
-23.7005
-23.4983
-23.3379
-23.2165
-23.1341
-23.0753
-23.0255
-22.9729
-22.9196
-22.8682
-22.8163
-22.7711
-22.7392
-22.717
-22.6995
-22.6823
-22.6661
-22.6517
-22.6384
-22.6276
-22.6207
-22.6176
-22.6183
-22.6223
-22.6281
-22.6341
-22.6406
-22.6465
-22.6505
-22.6566
-22.6699
-22.6959
-22.7346
-22.7867
-22.8551
-22.9283
-22.9973
-23.076
-23.1847
-23.3464
-23.5643
-23.8458
-24.2063
-24.6166
-25.0557
-25.5761
-26.244
-27.1157
-28.1411
-29.2264
-30.2593
-30.9914
-31.3475
-29.9969
-29.4661
-28.5
-27.4358
-26.5292
-25.7757
-25.1832
-24.764
-24.4444
-24.1649
-23.8748
-23.6089
-23.4068
-23.2482
-23.1309
-23.0603
-23.0142
-22.9751
-22.9265
-22.8753
-22.8259
-22.7722
-22.7255
-22.6962
-22.678
-22.6642
-22.6483
-22.6327
-22.619
-22.6052
-22.5937
-22.5865
-22.5832
-22.5837
-22.5879
-22.5936
-22.5983
-22.6034
-22.6067
-22.6055
-22.6051
-22.6118
-22.6335
-22.668
-22.7161
-22.785
-22.8561
-22.912
-22.9731
-23.0644
-23.2181
-23.4307
-23.7099
-24.0872
-24.5117
-24.9396
-25.4498
-26.1313
-27.0804
-28.2266
-29.4584
-30.6778
-31.5133
-31.9006
-30.5729
-29.9435
-28.7598
-27.5001
-26.5051
-25.6935
-25.0681
-24.6623
-24.3639
-24.1009
-23.7957
-23.5115
-23.3124
-23.156
-23.0418
-22.9858
-22.9545
-22.9281
-22.8823
-22.8323
-22.7858
-22.7287
-22.679
-22.6532
-22.6397
-22.6304
-22.6155
-22.6002
-22.5873
-22.5728
-22.5603
-22.5529
-22.5495
-22.5499
-22.5545
-22.5605
-22.5638
-22.5678
-22.5691
-22.5621
-22.5546
-22.5536
-22.5716
-22.602
-22.6451
-22.7174
-22.789
-22.8293
-22.8699
-22.9397
-23.0861
-23.2926
-23.565
-23.9659
-24.4105
-24.816
-25.303
-25.9831
-27.0168
-28.2952
-29.6823
-31.1357
-32.0798
-32.4879
-31.2104
-30.4762
-29.0187
-27.5252
-26.4565
-25.589
-24.9276
-24.55
-24.2816
-24.0451
-23.7169
-23.4063
-23.216
-23.0616
-22.9483
-22.9107
-22.8964
-22.8854
-22.8403
-22.7905
-22.7485
-22.6857
-22.6309
-22.61
-22.6023
-22.5985
-22.5839
-22.5685
-22.557
-22.5411
-22.5272
-22.5198
-22.5163
-22.5165
-22.5221
-22.5288
-22.5303
-22.5338
-22.534
-22.5203
-22.505
-22.4951
-22.5103
-22.5368
-22.5729
-22.6526
-22.7288
-22.7499
-22.7668
-22.8096
-22.9514
-23.1511
-23.4086
-23.8435
-24.3187
-24.6863
-25.1358
-25.7925
-26.9221
-28.3457
-29.8873
-31.6434
-32.6953
-33.1058
-31.9125
-31.0765
-29.2708
-27.4958
-26.3845
-25.4628
-24.7573
-24.4286
-24.1987
-24.003
-23.639
-23.2904
-23.1189
-22.9659
-22.8491
-22.8357
-22.8401
-22.8486
-22.8004
-22.7491
-22.7152
-22.6433
-22.5804
-22.5667
-22.5656
-22.569
-22.5534
-22.5373
-22.5281
-22.5103
-22.4945
-22.4873
-22.4838
-22.4836
-22.4906
-22.4987
-22.4977
-22.5013
-22.5017
-22.4801
-22.4565
-22.4356
-22.4499
-22.4729
-22.4981
-22.5906
-22.6777
-22.6742
-22.6646
-22.6725
-22.8148
-23.0082
-23.2363
-23.7211
-24.244
-24.5516
-24.9494
-25.5505
-26.7943
-28.3789
-30.0566
-32.2172
-33.3647
-33.7486
-32.6804
-31.7619
-29.5084
-27.3915
-26.2933
-25.3169
-24.5509
-24.3008
-24.1152
-23.9817
-23.5626
-23.1589
-23.0236
-22.8698
-22.742
-22.7616
-22.7855
-22.8196
-22.7624
-22.7073
-22.6873
-22.6013
-22.526
-22.5235
-22.5296
-22.5426
-22.5239
-22.5063
-22.5011
-22.4802
-22.4618
-22.4555
-22.4519
-22.4509
-22.46
-22.4707
-22.4656
-22.4702
-22.473
-22.4416
-22.4094
-22.3743
-22.3907
-22.4111
-22.4185
-22.5316
-22.6389
-22.6021
-22.5645
-22.5255
-22.678
-22.8671
-23.0418
-23.5994
-24.1969
-24.4122
-24.7474
-25.245
-26.6325
-28.3995
-30.1634
-32.8819
-34.0927
-34.4077
-33.5116
-32.5576
-29.7214
-27.1848
-26.1929
-25.1549
-24.2991
-24.1715
-24.0298
-23.991
-23.4875
-23.0048
-22.9341
-22.7749
-22.6238
-22.6899
-22.7319
-22.8011
-22.7254
-22.6633
-22.6673
-22.5598
-22.466
-22.481
-22.4942
-22.5203
-22.4952
-22.4751
-22.4766
-22.4507
-22.429
-22.4244
-22.4208
-22.4182
-22.4301
-22.4452
-22.4336
-22.4403
-22.4489
-22.4045
-22.3643
-22.31
-22.3333
-22.353
-22.3309
-22.4756
-22.6166
-22.533
-22.4685
-22.3646
-22.5429
-22.7332
-22.8155
-23.4785
-24.1916
-24.266
-24.5366
-24.8592
-26.4375
-28.419
-30.1658
-33.6757
-34.8832
-35.0715
-34.3988
-33.4991
-29.8965
-26.8389
-26.1007
-24.9821
-23.9882
-24.0488
-23.9381
-24.0442
-23.4136
-22.8178
-22.8566
-22.6831
-22.4897
-22.6235
-22.6779
-22.7971
-22.6886
-22.6148
-22.6586
-22.5185
-22.398
-22.4402
-22.4588
-22.5038
-22.4671
-22.443
-22.4556
-22.422
-22.3957
-22.3944
-22.3907
-22.3854
-22.4011
-22.4231
-22.4011
-22.4113
-22.4306
-22.3684
-22.3224
-22.2408
-22.2786
-22.3012
-22.2309
-22.4221
-22.6166
-22.465
-22.3802
-22.1834
-22.4123
-22.6152
-22.5431
-23.3579
-24.2474
-24.1073
-24.3295
-24.3696
-26.2118
-28.4596
-29.9995
-34.6553
-35.7375
-35.7249
-35.3271
-34.6367
-30.0163
-26.3046
-26.0454
-24.8056
-23.5984
-23.9461
-23.8314
-24.1596
-23.3399
-22.5833
-22.8009
-22.5969
-22.3328
-22.5667
-22.6206
-22.8131
-22.6503
-22.558
-22.6663
-22.4772
-22.3187
-22.4031
-22.4227
-22.495
-22.439
-22.4089
-22.4394
-22.3938
-22.3615
-22.3658
-22.3619
-22.3521
-22.3727
-22.4057
-22.367
-22.3827
-22.4202
-22.3323
-22.2852
-22.1641
-22.2275
-22.2597
-22.1124
-22.3705
-22.6469
-22.394
-22.3055
-21.9727
-22.2895
-22.5262
-22.2048
-23.2359
-24.391
-23.9239
-24.1469
-23.7431
-25.9601
-28.5598
-29.5681
-35.9053
-36.6513
-36.3491
-36.2713
-36.0398
-30.0582
-25.5167
-26.0705
-24.634
-23.1009
-23.8847
-23.6942
-24.362
-23.2643
-22.2809
-22.7814
-22.5193
-22.1428
-22.5268
-22.5547
-22.857
-22.6081
-22.4876
-22.6974
-22.4353
-22.2233
-22.3728
-22.3839
-22.4968
-22.4102
-22.3715
-22.4301
-22.3658
-22.326
-22.3391
-22.335
-22.3178
-22.3446
-22.3949
-22.3301
-22.3536
-22.4204
-22.2947
-22.2556
-22.076
-22.1811
-22.2343
-21.9665
-22.3198
-22.7183
-22.3131
-22.2534
-21.7192
-22.1785
-22.4856
-21.7729
-23.1094
-24.6584
-23.6935
-24.022
-22.9338
-25.6884
-28.7824
-28.7292
-37.5488
-37.6104
-36.9223
-37.1924
-37.8034
-29.9929
-24.3894
-26.2397
-24.4769
-22.4552
-23.8971
-23.5004
-24.6851
-23.1838
-21.8829
-22.8185
-22.4535
-21.9054
-22.5146
-22.4718
-22.9394
-22.5585
-22.3962
-22.7619
-22.3916
-22.1057
-22.354
-22.3395
-22.5134
-22.3791
-22.3287
-22.4303
-22.3373
-22.2881
-22.315
-22.3102
-22.2818
-22.316
-22.3931
-22.2884
-22.3228
-22.4347
-22.2525
-22.2376
-21.9709
-22.1406
-22.2336
-21.7816
-22.2682
-22.8456
-22.2107
-22.2384
-21.404
-22.0835
-22.5214
-21.2097
-22.973
-25.0984
-23.3788
-24.0058
-21.8779
-25.4035
-29.225
-27.2777
-39.7623
-38.5838
-37.4203
-38.0337
-40.0549
-29.7825
-22.811
-26.6431
-24.3439
-21.6054
-24.0316
-23.2094
-25.174
-23.0933
-21.3523
-22.9409
-22.4027
-21.6007
-22.5464
-22.3584
-23.0749
-22.4963
-22.2734
-22.8728
-22.3441
-21.9572
-22.3535
-22.2843
-22.5497
-22.3438
-22.2775
-22.4433
-22.307
-22.2468
-22.2939
-22.288
-22.2431
-22.2858
-22.4034
-22.2391
-22.288
-22.4681
-22.2008
-22.2372
-21.8411
-22.107
-22.2693
-21.5417
-22.2126
-23.0486
-22.0684
-22.2815
-21.001
-22.0087
-22.6727
-20.4648
-22.8182
-25.7769
-22.9209
-24.1741
-20.4888
-25.1108
-30.0337
-24.9233
-42.7946
-39.5153
-37.8185
-38.7157
-42.9623
-29.3784
-20.6382
-27.4037
-24.2431
-20.4754
-24.3583
-22.7603
-25.8892
-22.9855
-20.64
-23.1876
-22.3698
-21.2015
-22.6456
-22.1939
-23.2833
-22.4143
-22.1048
-23.0473
-22.2894
-21.7664
-22.3807
-22.2104
-22.6126
-22.3006
-22.2135
-22.4736
-22.2726
-22.1999
-22.2762
-22.2684
-22.2
-22.2515
-22.4298
-22.1781
-22.2459
-22.5266
-22.1321
-22.2624
-21.6756
-22.0804
-22.3571
-21.2258
-22.1486
-23.3534
-21.8586
-22.4134
-20.4746
-21.9577
-22.9925
-19.4719
-22.6326
-26.7818
-22.2314
-24.6365
-18.6501
-24.8119
-31.4202
-21.2634
-46.9905
-40.3107
-38.0946
-39.131
-46.7435
-28.7202
-17.6897
-28.6869
-24.1809
-18.9656
-24.9775
-22.0662
-26.9115
-22.851
-19.6842
-23.612
-22.358
-20.6731
-22.8464
-21.9504
-23.5924
-22.3045
-21.8733
-23.3095
-22.2237
-21.5201
-22.4506
-22.1076
-22.7128
-22.2467
-22.1327
-22.5284
-22.2325
-22.1465
-22.2639
-22.2529
-22.1519
-22.2116
-22.479
-22.1018
-22.1937
-22.6204
-22.0369
-22.3266
-21.4616
-22.0621
-22.5199
-20.8082
-22.0716
-23.7962
-21.5434
-22.679
-19.7792
-21.9341
-23.5534
-18.1474
-22.3997
-28.2307
-21.1827
-25.5481
-16.21
-24.5011
-33.6843
-15.7524
-52.8199
-40.8233
-38.2339
)
;

boundaryField
{
    left
    {
        type            calculated;
        value           nonuniform List<scalar> 
32
(
-25.7884
-25.8099
-25.8514
-25.9116
-25.9897
-26.0855
-26.1991
-26.331
-26.4821
-26.6536
-26.8469
-27.0638
-27.3064
-27.5775
-27.8799
-28.2171
-28.593
-29.0118
-29.4781
-29.9969
-30.5729
-31.2104
-31.9125
-32.6804
-33.5116
-34.3988
-35.3271
-36.2713
-37.1924
-38.0337
-38.7157
-39.131
)
;
    }
    right
    {
        type            calculated;
        value           nonuniform List<scalar> 
32
(
-26.7608
-26.7905
-26.8477
-26.9304
-27.0375
-27.1682
-27.3226
-27.5008
-27.7036
-27.9316
-28.1862
-28.4685
-28.78
-29.1224
-29.4972
-29.9059
-30.35
-30.8304
-31.3475
-31.9006
-32.4879
-33.1058
-33.7486
-34.4077
-35.0715
-35.7249
-36.3491
-36.9223
-37.4203
-37.8185
-38.0946
-38.2339
)
;
    }
    interface
    {
        type            calculated;
        value           nonuniform List<scalar> 
64
(
-39.2566
-48.8832
-28.3191
-15.9964
-29.4829
-24.1601
-18.1017
-25.3749
-21.6453
-27.511
-22.7759
-19.1369
-23.8764
-22.3578
-20.3718
-22.9775
-21.8049
-23.7762
-22.2416
-21.7396
-23.4661
-22.1878
-21.3814
-22.4985
-22.0476
-22.7738
-22.2168
-22.0878
-22.5631
-22.2109
-22.1183
-22.2595
-22.2466
-22.1267
-22.1901
-22.5105
-22.0595
-22.1648
-22.6777
-21.9815
-22.3706
-21.3409
-22.0554
-22.6235
-20.5707
-22.0293
-24.0575
-21.3539
-22.8519
-19.3829
-21.9297
-23.9047
-17.3906
-22.2691
-29.083
-20.5499
-26.1389
-14.8183
-24.3415
-35.0796
-12.4559
-56.2105
-40.9868
-38.2682
)
;
    }
    bottom
    {
        type            calculated;
        value           nonuniform List<scalar> 
64
(
-25.7828
-25.7551
-25.7008
-25.6223
-25.5226
-25.4053
-25.2745
-25.134
-24.9876
-24.8386
-24.6899
-24.544
-24.4026
-24.2674
-24.1394
-24.0193
-23.9076
-23.8044
-23.7097
-23.6233
-23.5452
-23.4751
-23.4126
-23.3575
-23.3095
-23.2684
-23.2339
-23.2058
-23.1841
-23.1685
-23.1592
-23.156
-23.159
-23.1684
-23.1843
-23.207
-23.2368
-23.2741
-23.3192
-23.3727
-23.4352
-23.5071
-23.5892
-23.6818
-23.7857
-23.9014
-24.0291
-24.1692
-24.3217
-24.4864
-24.6625
-24.8492
-25.0447
-25.2468
-25.4529
-25.6593
-25.8618
-26.0558
-26.2361
-26.3972
-26.5338
-26.6412
-26.7153
-26.7531
)
;
    }
    defaultFaces
    {
        type            empty;
    }
}


// ************************************************************************* //
