/*--------------------------------*- C++ -*----------------------------------*\
| =========                 |                                                 |
| \\      /  F ield         | OpenFOAM: The Open Source CFD Toolbox           |
|  \\    /   O peration     | Version:  5.x                                   |
|   \\  /    A nd           | Web:      www.OpenFOAM.org                      |
|    \\/     M anipulation  |                                                 |
\*---------------------------------------------------------------------------*/
FoamFile
{
    version     2.0;
    format      ascii;
    class       volScalarField;
    location    "0.6";
    object      T;
}
// * * * * * * * * * * * * * * * * * * * * * * * * * * * * * * * * * * * * * //

dimensions      [0 0 0 1 0 0 0];

internalField   nonuniform List<scalar> 
2048
(
9.81477
9.81497
9.81536
9.81592
9.81664
9.81748
9.81842
9.81943
9.82048
9.82155
9.82262
9.82367
9.82468
9.82566
9.82658
9.82744
9.82824
9.82898
9.82966
9.83028
9.83084
9.83135
9.8318
9.83219
9.83254
9.83283
9.83308
9.83328
9.83344
9.83355
9.83362
9.83364
9.83362
9.83355
9.83344
9.83327
9.83306
9.83279
9.83247
9.83208
9.83164
9.83112
9.83053
9.82986
9.82912
9.82829
9.82737
9.82636
9.82527
9.82408
9.82282
9.82148
9.82007
9.81862
9.81714
9.81566
9.8142
9.81281
9.81151
9.81036
9.80937
9.8086
9.80807
9.8078
9.45225
9.45285
9.45401
9.4557
9.45784
9.46035
9.46316
9.46616
9.46929
9.47247
9.47565
9.47876
9.48177
9.48465
9.48737
9.48992
9.4923
9.49449
9.4965
9.49833
9.49999
9.50148
9.5028
9.50397
9.50499
9.50586
9.5066
9.50719
9.50765
9.50798
9.50818
9.50825
9.50818
9.50799
9.50765
9.50717
9.50654
9.50575
9.50479
9.50366
9.50234
9.50081
9.49907
9.49711
9.4949
9.49245
9.48974
9.48676
9.48352
9.48002
9.47627
9.4723
9.46814
9.46382
9.45943
9.45502
9.45069
9.44654
9.44268
9.43922
9.43629
9.43399
9.4324
9.43159
9.10516
9.10616
9.1081
9.11091
9.11447
9.11865
9.1233
9.12827
9.13344
9.13869
9.14392
9.14903
9.15397
9.15869
9.16315
9.16733
9.17121
9.17479
9.17807
9.18106
9.18376
9.18619
9.18835
9.19025
9.19191
9.19333
9.19452
9.19549
9.19624
9.19678
9.19711
9.19722
9.19712
9.1968
9.19625
9.19547
9.19445
9.19317
9.19162
9.18977
9.18762
9.18515
9.18232
9.17912
9.17553
9.17153
9.1671
9.16225
9.15695
9.15122
9.14508
9.13857
9.13173
9.12464
9.11739
9.11012
9.10296
9.09609
9.08969
9.08395
9.07908
9.07524
9.07259
9.07123
8.77259
8.774
8.77675
8.78072
8.78573
8.7916
8.79811
8.80506
8.81226
8.81956
8.8268
8.83388
8.84071
8.84721
8.85335
8.85909
8.86442
8.86932
8.87382
8.87791
8.8816
8.88492
8.88787
8.89047
8.89273
8.89467
8.8963
8.89762
8.89865
8.89938
8.89983
8.89999
8.89985
8.89942
8.89868
8.89762
8.89623
8.89449
8.89238
8.88988
8.88695
8.88357
8.87972
8.87535
8.87045
8.86498
8.85892
8.85227
8.845
8.83713
8.82868
8.81969
8.81024
8.80043
8.79037
8.78026
8.77028
8.76068
8.75171
8.74366
8.7368
8.73139
8.72765
8.72574
8.45372
8.45556
8.45916
8.46434
8.47087
8.47848
8.4869
8.49586
8.50512
8.51446
8.52371
8.53273
8.5414
8.54964
8.5574
8.56464
8.57136
8.57753
8.58318
8.58831
8.59295
8.59711
8.6008
8.60406
8.6069
8.60933
8.61137
8.61303
8.61431
8.61524
8.6158
8.616
8.61584
8.6153
8.61438
8.61307
8.61134
8.60918
8.60655
8.60342
8.59977
8.59555
8.59073
8.58526
8.57912
8.57226
8.56466
8.55629
8.54713
8.53719
8.5265
8.51511
8.5031
8.49059
8.47775
8.46478
8.45196
8.43957
8.42797
8.41753
8.40861
8.40156
8.39668
8.39418
8.14776
8.15008
8.15459
8.16106
8.1692
8.17864
8.18905
8.20007
8.21141
8.22282
8.23407
8.245
8.25548
8.26542
8.27475
8.28344
8.29148
8.29887
8.30561
8.31173
8.31726
8.32221
8.32662
8.3305
8.33387
8.33676
8.33919
8.34116
8.3427
8.3438
8.34447
8.34471
8.34453
8.3439
8.34282
8.34127
8.33923
8.33667
8.33356
8.32987
8.32554
8.32054
8.31482
8.30832
8.30102
8.29285
8.28377
8.27376
8.2628
8.25087
8.23801
8.22427
8.20973
8.19455
8.17891
8.16308
8.14735
8.13211
8.11778
8.10483
8.09374
8.08495
8.07885
8.07573
7.85402
7.85685
7.86235
7.87023
7.88008
7.89146
7.90394
7.9171
7.93057
7.94406
7.95732
7.97015
7.98241
7.99401
8.00486
8.01495
8.02426
8.0328
8.04058
8.04764
8.054
8.05971
8.06477
8.06923
8.07311
8.07644
8.07922
8.08149
8.08326
8.08453
8.08531
8.0856
8.08539
8.08469
8.08346
8.0817
8.07937
8.07646
8.07291
8.06868
8.06374
8.05801
8.05145
8.044
8.0356
8.02619
8.01573
8.00417
7.99147
7.97763
7.96266
7.94662
7.9296
7.91176
7.89332
7.87456
7.85586
7.83766
7.82048
7.80488
7.79147
7.78081
7.7734
7.7696
7.5718
7.5752
7.5818
7.59121
7.60291
7.61637
7.63103
7.6464
7.66207
7.67767
7.69294
7.70766
7.72168
7.73489
7.74722
7.75865
7.76917
7.7788
7.78756
7.7955
7.80266
7.80906
7.81475
7.81975
7.82411
7.82783
7.83096
7.83351
7.83549
7.83692
7.8378
7.83813
7.83792
7.83714
7.83578
7.83383
7.83125
7.828
7.82406
7.81935
7.81384
7.80745
7.80011
7.79177
7.78236
7.77179
7.76002
7.74699
7.73264
7.71696
7.69995
7.68166
7.66218
7.64169
7.62042
7.5987
7.57694
7.55566
7.53547
7.51705
7.50115
7.48846
7.47962
7.47507
7.30047
7.30452
7.31234
7.32343
7.33715
7.35283
7.3698
7.38748
7.40539
7.42314
7.44043
7.45703
7.47277
7.48756
7.50132
7.51403
7.5257
7.53636
7.54605
7.55482
7.56271
7.56977
7.57604
7.58155
7.58635
7.59045
7.59389
7.5967
7.59888
7.60046
7.60144
7.60182
7.6016
7.60076
7.59929
7.59716
7.59435
7.59081
7.58651
7.58137
7.57534
7.56834
7.5603
7.55113
7.54077
7.52913
7.51613
7.50171
7.48579
7.46835
7.44936
7.42887
7.40698
7.38384
7.35973
7.33499
7.31007
7.28557
7.26219
7.24076
7.22215
7.20726
7.19684
7.19147
7.03943
7.0442
7.05338
7.06635
7.08228
7.10035
7.11977
7.13986
7.16007
7.17999
7.1993
7.21777
7.23521
7.25153
7.26666
7.2806
7.29336
7.30499
7.31555
7.32509
7.33368
7.34135
7.34816
7.35415
7.35935
7.3638
7.36753
7.37058
7.37296
7.37468
7.37575
7.37617
7.37594
7.37505
7.37348
7.37121
7.36819
7.3644
7.35977
7.35424
7.34774
7.34019
7.3315
7.32158
7.31035
7.2977
7.28356
7.26783
7.25043
7.2313
7.21041
7.18778
7.1635
7.13774
7.11076
7.08294
7.05477
7.0269
7.00014
6.97546
6.95392
6.93659
6.92443
6.91816
6.7881
6.79369
6.80442
6.81946
6.83783
6.85848
6.88048
6.90307
6.92565
6.94777
6.9691
6.98941
7.00852
7.02633
7.04279
7.05789
7.07168
7.08422
7.09558
7.10585
7.11507
7.12332
7.13063
7.13705
7.14263
7.14741
7.15141
7.15468
7.15724
7.15909
7.16025
7.16072
7.16049
7.15956
7.1579
7.15549
7.1523
7.14827
7.14336
7.13749
7.13057
7.12253
7.11325
7.10264
7.09061
7.07703
7.06183
7.04488
7.02608
7.00535
6.98263
6.95792
6.93129
6.90291
6.87306
6.8421
6.81058
6.77919
6.74884
6.72066
6.69591
6.67591
6.66182
6.65454
6.54591
6.55245
6.56493
6.58231
6.60335
6.62678
6.65152
6.67671
6.7017
6.72603
6.74939
6.77152
6.79226
6.81151
6.82923
6.84543
6.86018
6.87357
6.88569
6.89662
6.90644
6.91521
6.92299
6.92983
6.93575
6.94083
6.94508
6.94855
6.95127
6.95325
6.95449
6.95501
6.95479
6.95382
6.95209
6.94956
6.94621
6.94199
6.93683
6.93065
6.92337
6.91488
6.90508
6.89384
6.88107
6.86665
6.85046
6.83238
6.81228
6.79003
6.76556
6.73883
6.7099
6.67893
6.64618
6.61205
6.57708
6.54202
6.50786
6.4759
6.44764
6.42468
6.40844
6.40003
6.31235
6.31997
6.33445
6.35446
6.37843
6.40487
6.4325
6.46037
6.4878
6.51436
6.53972
6.56365
6.58598
6.60662
6.62555
6.64279
6.65844
6.6726
6.68541
6.69696
6.70733
6.7166
6.72481
6.73202
6.73827
6.74361
6.74809
6.75176
6.75463
6.75672
6.75805
6.75861
6.7584
6.7574
6.7556
6.75298
6.74949
6.7451
6.73972
6.73328
6.72568
6.7168
6.70653
6.69473
6.68129
6.66609
6.64899
6.62987
6.60855
6.58489
6.55874
6.53006
6.49889
6.46535
6.42972
6.39239
6.35389
6.315
6.27679
6.24075
6.20865
6.1824
6.16378
6.15411
6.0869
6.09577
6.11254
6.1355
6.16271
6.19237
6.22304
6.25366
6.28357
6.31234
6.33968
6.36538
6.38927
6.41125
6.43132
6.44953
6.466
6.48088
6.49432
6.50644
6.51732
6.52704
6.53566
6.54321
6.54975
6.55534
6.56003
6.56387
6.56688
6.56909
6.57049
6.5711
6.5709
6.56988
6.56803
6.56532
6.56172
6.55717
6.55162
6.54496
6.53708
6.52787
6.51717
6.50486
6.49082
6.47491
6.45699
6.43691
6.41448
6.38949
6.36176
6.33121
6.29783
6.26177
6.22328
6.18273
6.14064
6.09776
6.05527
6.01483
5.97851
5.94862
5.92733
5.91626
5.86906
5.87939
5.89878
5.92507
5.95584
5.98896
6.0228
6.05624
6.08862
6.11958
6.14889
6.17632
6.20172
6.22499
6.24613
6.26524
6.28246
6.29799
6.312
6.32464
6.33599
6.34614
6.35513
6.363
6.3698
6.37562
6.3805
6.38449
6.38764
6.38994
6.39142
6.39207
6.39189
6.39085
6.38896
6.38618
6.38248
6.37781
6.3721
6.36526
6.35716
6.34765
6.33659
6.32383
6.30924
6.29268
6.27402
6.25307
6.22962
6.2034
6.17419
6.14184
6.10633
6.06778
6.02645
5.98269
5.93697
5.88999
5.84297
5.79777
5.75682
5.72289
5.69863
5.686
5.65836
5.67037
5.69278
5.72283
5.75751
5.79433
5.83147
5.86776
5.90259
5.9357
5.96693
5.99607
6.02293
6.04743
6.06959
6.08951
6.10741
6.12352
6.13805
6.15116
6.16295
6.17349
6.18283
6.19099
6.19804
6.20405
6.2091
6.21324
6.2165
6.21891
6.22046
6.22115
6.22098
6.21994
6.218
6.21516
6.21138
6.20661
6.20078
6.19379
6.1855
6.17575
6.16437
6.15122
6.13613
6.11899
6.09965
6.07794
6.05357
6.02624
5.99563
5.96157
5.92399
5.883
5.83886
5.79192
5.74255
5.69137
5.63957
5.58924
5.54322
5.50479
5.47722
5.46287
5.45431
5.46828
5.49419
5.52848
5.56744
5.60819
5.64874
5.68788
5.72512
5.76032
5.79344
5.82425
5.85253
5.8782
5.9013
5.92198
5.94047
5.95709
5.97208
5.98562
5.99781
6.00872
6.01838
6.02681
6.03407
6.04026
6.04546
6.04973
6.05311
6.05561
6.05723
6.05797
6.05781
6.05676
6.05479
6.0519
6.04805
6.0432
6.03728
6.03018
6.02174
6.0118
6.00015
5.98664
5.97111
5.95343
5.93349
5.9111
5.88593
5.85758
5.82568
5.78999
5.75042
5.70703
5.66013
5.61007
5.55708
5.50161
5.4448
5.38895
5.33736
5.29393
5.26269
5.24643
5.25646
5.27271
5.30266
5.34175
5.38537
5.43028
5.47433
5.51629
5.55585
5.59308
5.62804
5.6605
5.69015
5.71694
5.74092
5.76225
5.78126
5.79831
5.81371
5.82764
5.84021
5.85147
5.86144
5.87011
5.87755
5.88389
5.88923
5.89362
5.8971
5.89969
5.90138
5.90216
5.90203
5.90097
5.89897
5.89603
5.89213
5.88722
5.88123
5.87405
5.86551
5.85541
5.84354
5.82972
5.8138
5.79563
5.77514
5.75216
5.72631
5.69707
5.66398
5.62675
5.58525
5.5395
5.4899
5.43681
5.38027
5.32046
5.2584
5.19662
5.13893
5.08992
5.05461
5.03628
5.06437
5.08326
5.1179
5.16241
5.21106
5.26034
5.30796
5.35269
5.39446
5.43361
5.47038
5.50446
5.53544
5.56329
5.58808
5.60999
5.62943
5.64683
5.6626
5.67688
5.68979
5.7014
5.71166
5.72054
5.72815
5.73461
5.74006
5.74456
5.74814
5.75081
5.75258
5.7534
5.75329
5.75222
5.7502
5.74722
5.74328
5.73832
5.73228
5.72506
5.71646
5.70625
5.69419
5.6801
5.66383
5.64521
5.62423
5.60076
5.57433
5.54433
5.51015
5.47147
5.42812
5.38005
5.32779
5.27179
5.21182
5.14769
5.08014
5.012
4.94764
4.8924
4.85261
4.83205
4.87759
4.89952
4.93962
4.99026
5.04432
5.09814
5.14939
5.19678
5.24061
5.28155
5.32011
5.35581
5.38806
5.41691
5.44246
5.46485
5.48462
5.50231
5.51839
5.533
5.54623
5.55816
5.56871
5.57779
5.58552
5.59208
5.59764
5.60224
5.6059
5.60866
5.61049
5.61137
5.61127
5.6102
5.60815
5.60514
5.60116
5.59616
5.5901
5.58287
5.57425
5.56398
5.55177
5.53745
5.52086
5.50182
5.48039
5.45652
5.42965
5.39901
5.36384
5.32381
5.27869
5.22831
5.17343
5.1147
5.05147
4.98308
4.90982
4.83487
4.76325
4.70099
4.65629
4.63338
4.69569
4.7211
4.76759
4.82515
4.88494
4.94347
4.99837
5.04826
5.09396
5.13654
5.17688
5.21422
5.24769
5.27749
5.30372
5.3265
5.34651
5.3644
5.38075
5.39567
5.40919
5.42145
5.43229
5.44153
5.44936
5.456
5.46164
5.46634
5.47008
5.47292
5.47483
5.47575
5.47567
5.4746
5.47252
5.46948
5.46547
5.46045
5.45437
5.44716
5.43857
5.42828
5.41595
5.40144
5.38457
5.36511
5.34325
5.31909
5.29191
5.26078
5.22471
5.18342
5.13663
5.08393
5.02645
4.9652
4.89895
4.82644
4.74724
4.66503
4.58554
4.51534
4.46529
4.43998
4.51827
4.54759
4.60158
4.66699
4.73274
4.7961
4.85469
4.90685
4.95419
4.99823
5.04037
5.07941
5.114
5.1447
5.17158
5.19464
5.21477
5.23277
5.24939
5.2646
5.27837
5.29097
5.3021
5.31149
5.31938
5.32605
5.33178
5.33656
5.34038
5.34331
5.34529
5.34625
5.34619
5.34512
5.34301
5.33993
5.33591
5.33087
5.32479
5.31764
5.30911
5.29885
5.28643
5.27175
5.25465
5.23476
5.21249
5.18814
5.16079
5.12933
5.09244
5.04998
5.00165
4.94657
4.88647
4.82296
4.754
4.67762
4.59222
4.50226
4.41435
4.33504
4.27926
4.25156
4.34493
4.37858
4.44142
4.51574
4.58753
4.6558
4.71813
4.77227
4.82099
4.86624
4.91026
4.9511
4.9867
5.01824
5.04575
5.06895
5.08912
5.10713
5.124
5.13948
5.15347
5.16643
5.17788
5.18736
5.19528
5.20196
5.20777
5.21263
5.21651
5.21953
5.22159
5.22259
5.22256
5.22148
5.21934
5.21622
5.2122
5.20714
5.20106
5.194
5.18558
5.1754
5.1629
5.14809
5.13081
5.11046
5.08775
5.06335
5.03597
5.00436
4.96669
4.92316
4.87347
4.81588
4.75307
4.68768
4.61637
4.53647
4.44459
4.34639
4.2496
4.15969
4.09784
4.06791
4.17531
4.21361
4.28696
4.37142
4.44911
4.52237
4.58853
4.64424
4.69406
4.7402
4.78625
4.82903
4.86547
4.89781
4.92595
4.94915
4.96924
4.98716
5.00429
5.02005
5.03419
5.04756
5.05937
5.0689
5.0768
5.08344
5.08934
5.09429
5.09821
5.10133
5.10348
5.10451
5.1045
5.10342
5.10125
5.09808
5.09407
5.08899
5.0829
5.07598
5.06771
5.05767
5.04509
5.03017
5.0128
4.99191
4.96871
4.9444
4.91714
4.88559
4.84717
4.80263
4.75185
4.69156
4.62585
4.55903
4.48578
4.40293
4.30417
4.19721
4.09128
3.9888
3.92068
3.88885
4.00909
4.05217
4.13811
4.23415
4.31724
4.39554
4.46574
4.52246
4.57309
4.61972
4.66805
4.71302
4.75002
4.78314
4.81196
4.83497
4.85489
4.87256
4.89001
4.90605
4.92025
4.9341
4.94632
4.95583
4.96369
4.97023
4.97623
4.98128
4.98521
4.98844
4.99069
4.99176
4.99176
4.99069
4.98846
4.98523
4.98126
4.97615
4.97004
4.96331
4.95522
4.9454
4.93273
4.91771
4.90035
4.87884
4.85503
4.831
4.80401
4.77279
4.73356
4.68808
4.63659
4.57328
4.50434
4.43672
4.36195
4.27693
4.1708
4.05446
3.93954
3.82177
3.74747
3.71429
3.84599
3.89366
3.99482
4.10417
4.19162
4.27508
4.34965
4.40662
4.45784
4.50438
4.55536
4.60288
4.64002
4.67393
4.70355
4.72611
4.74579
4.76302
4.7809
4.79726
4.81137
4.8258
4.83852
4.84791
4.85568
4.86207
4.86821
4.87336
4.87726
4.88064
4.883
4.88408
4.8841
4.88305
4.88076
4.87744
4.87354
4.8684
4.86223
4.85574
4.84786
4.83836
4.82555
4.81044
4.79328
4.77097
4.74638
4.72289
4.69627
4.66573
4.62556
4.57916
4.52755
4.46075
4.38805
4.32048
4.24457
4.15851
4.04427
3.91785
3.79474
3.65786
3.57788
3.54418
3.68584
3.73738
3.8571
3.98182
4.07188
4.16069
4.24021
4.29639
4.34806
4.39372
4.44795
4.49851
4.53516
4.56991
4.60054
4.6223
4.64171
4.65826
4.67673
4.69347
4.70726
4.72242
4.73577
4.74489
4.75257
4.75869
4.76504
4.77031
4.77412
4.77767
4.78017
4.78125
4.78128
4.78027
4.77789
4.77445
4.77069
4.76548
4.75919
4.75304
4.74539
4.73633
4.72331
4.70807
4.69137
4.66807
4.64243
4.61982
4.59363
4.56425
4.52287
4.47549
4.42465
4.3537
4.27642
4.21009
4.13324
4.0478
3.92438
3.78695
3.65752
3.49612
3.41163
3.37854
3.52854
3.58244
3.72502
3.86765
3.9575
4.05208
4.13748
4.19136
4.24361
4.28723
4.34556
4.39986
4.43506
4.4708
4.50278
4.52325
4.54245
4.55796
4.57729
4.59449
4.60763
4.62375
4.63789
4.64653
4.65413
4.65986
4.66651
4.67192
4.67555
4.67934
4.68199
4.68303
4.68309
4.68213
4.67965
4.67603
4.67249
4.6672
4.66069
4.655
4.64754
4.63912
4.62575
4.61034
4.5945
4.56988
4.54282
4.52159
4.49576
4.4682
4.42519
4.37666
4.32792
4.25188
4.16882
4.10541
4.0275
3.94502
3.81089
3.66114
3.5289
3.33526
3.24852
3.2175
3.37415
3.42774
3.59873
3.7624
3.84779
3.94893
4.04159
4.09107
4.14438
4.18433
4.24797
4.30696
4.33934
4.37633
4.41019
4.42866
4.44783
4.4618
4.48239
4.50016
4.51216
4.52957
4.54474
4.55257
4.56016
4.56532
4.57241
4.57801
4.58132
4.58542
4.58826
4.58922
4.58929
4.58843
4.58582
4.58195
4.57874
4.57333
4.56647
4.5614
4.55408
4.54656
4.53264
4.51695
4.50254
4.4762
4.44716
4.42802
4.40234
4.37753
4.33222
4.28221
4.23745
4.15505
4.0645
4.0064
3.92674
3.85058
3.70354
3.53957
3.41046
3.17354
3.08843
3.06122
3.2229
3.27189
3.47847
3.66705
3.74184
3.85087
3.95283
3.99494
4.05042
4.08435
4.15498
4.21994
4.24751
4.28623
4.3227
4.33819
4.35772
4.36941
4.39186
4.41038
4.42053
4.43969
4.45618
4.46278
4.47049
4.47481
4.48255
4.48838
4.49118
4.49573
4.49878
4.49961
4.4997
4.49897
4.49621
4.49197
4.48927
4.48371
4.47628
4.47208
4.46475
4.45851
4.44375
4.42759
4.41544
4.38684
4.35505
4.33901
4.31297
4.29223
4.24366
4.19155
4.15352
4.06303
3.96257
3.91321
3.83018
3.76508
3.60206
3.42097
3.30451
3.00865
2.93145
2.90995
3.07526
3.11312
3.3646
3.58293
3.63842
3.75757
3.87168
3.9022
3.96191
3.9865
4.06644
4.13907
4.15903
4.20023
4.24037
4.25144
4.27207
4.28043
4.30556
4.32507
4.33238
4.35393
4.37213
4.37687
4.38499
4.38807
4.39677
4.40289
4.40491
4.41008
4.41339
4.41398
4.4141
4.41358
4.41064
4.40585
4.40393
4.39814
4.38987
4.38689
4.37929
4.37487
4.35887
4.34191
4.33319
4.3016
4.26601
4.25454
4.2272
4.21241
4.15922
4.10401
4.07652
3.97567
3.86195
3.82619
3.73675
3.68939
3.50614
3.30359
3.2143
2.83747
2.77791
2.76398
2.93194
2.94923
3.2576
3.51171
3.53594
3.66864
3.79882
3.81188
3.87929
3.88983
3.9822
4.06473
4.07324
4.11808
4.1633
4.16798
4.19088
4.19442
4.22337
4.24421
4.24731
4.27214
4.29255
4.29455
4.30354
4.30484
4.31492
4.32141
4.32226
4.32831
4.33191
4.33216
4.33231
4.3321
4.32895
4.32338
4.32257
4.31649
4.30697
4.30572
4.29742
4.29557
4.27778
4.25955
4.25586
4.22035
4.17954
4.17468
4.14451
4.13828
4.07861
4.01876
4.00706
3.89289
3.76136
3.74603
3.64505
3.62472
3.41553
3.18495
3.14431
2.65585
2.62851
2.62363
)
;

boundaryField
{
    left
    {
        type            zeroGradient;
    }
    right
    {
        type            zeroGradient;
    }
    interface
    {
        type            fixedValue;
        value           nonuniform List<scalar> 
64
(
2.86144
2.86144
3.20674
3.48298
3.48298
3.62525
3.76631
3.76631
3.84041
3.84041
3.94129
4.03036
4.03036
4.07792
4.12671
4.12671
4.15172
4.15172
4.18343
4.20517
4.20517
4.23229
4.25415
4.25415
4.26394
4.26394
4.27502
4.28174
4.28174
4.28842
4.29218
4.29218
4.29236
4.29236
4.2891
4.28294
4.28294
4.27668
4.26624
4.26624
4.25724
4.25724
4.23817
4.21891
4.21891
4.18078
4.13633
4.13633
4.10347
4.10347
4.03922
3.97582
3.97582
3.8529
3.70912
3.70912
3.5981
3.5981
3.37181
3.12194
3.12194
2.5549
2.5549
2.5549
)
;
    }
    bottom
    {
        type            fixedValue;
        value           uniform 10;
    }
    defaultFaces
    {
        type            empty;
    }
}


// ************************************************************************* //
